 DBCSR| CPU Multiplication driver                                           XSMM (U)
 DBCSR| Multrec recursion limit                                              512 (U)
 DBCSR| Multiplication stack size                                           1000 (D)
 DBCSR| Maximum elements for images                                    UNLIMITED (U)
 DBCSR| Multiplicative factor virtual images                                   1 (U)
 DBCSR| Use multiplication densification                                       T (D)
 DBCSR| Multiplication size stacks                                             3 (U)
 DBCSR| Use memory pool for CPU allocation                                     F (U)
 DBCSR| Number of 3D layers                                               SINGLE (U)
 DBCSR| Use MPI memory allocation                                              F (U)
 DBCSR| Use RMA algorithm                                                      F (U)
 DBCSR| Use Communication thread                                               T (U)
 DBCSR| Communication thread load                                             87 (D)
 DBCSR| MPI: My process id                                                     0
 DBCSR| MPI: Number of processes                                              64
 DBCSR| OMP: Current number of threads                                         1
 DBCSR| OMP: Max number of threads                                             1
 DBCSR| Split modifier for TAS multiplication algorithm                  1.0E+00 (U)


  **** **** ******  **  PROGRAM STARTED AT               2024-12-25 17:16:14.402
 ***** ** ***  *** **   PROGRAM STARTED ON                                 cu076
 **    ****   ******    PROGRAM STARTED BY                                 jxzhu
 ***** **    ** ** **   PROGRAM PROCESS ID                                356473
  **** **  *******  **  PROGRAM STARTED IN /public/home/jxzhu/workspace/2024-dmf
                                           f-qeq/29.fermi_in_qeq/ot/wannier

 CP2K| version string:                                       CP2K version 2024.3
 CP2K| source code revision number:                                  git:6712648
 CP2K| cp2kflags: omp libint fftw3 libxc elpa parallel scalapack xsmm max_contr=
 CP2K|            4 plumed2 mkl
 CP2K| is freely available from                            https://www.cp2k.org/
 CP2K| Program compiled at            2024年 10月 16日 星期三 15:04:20 CST
 CP2K| Program compiled on                                                 mu011
 CP2K| Program compiled for                                  Linux-x86-64-intelx
 CP2K| Data directory path                             /public/home/jxzhu/basis/
 CP2K| Input file name                                                 input.inp
 
 GLOBAL| Force Environment number                                              1
 GLOBAL| Basis set file name                                        BASIS_MOLOPT
 GLOBAL| Potential file name                                      GTH_POTENTIALS
 GLOBAL| MM Potential file name                                     MM_POTENTIAL
 GLOBAL| Coordinate file name                                          coord.xyz
 GLOBAL| Method name                                                        CP2K
 GLOBAL| Project name                                                       cp2k
 GLOBAL| Run type                                                   ENERGY_FORCE
 GLOBAL| FFT library                                                       FFTW3
 GLOBAL| Diagonalization library                                            ELPA
 GLOBAL| DGEMM library                                                      BLAS
 GLOBAL| Minimum number of eigenvectors for ELPA usage                        16
 GLOBAL| Orthonormality check for eigenvectors                          DISABLED
 GLOBAL| Matrix multiplication library                                 ScaLAPACK
 GLOBAL| All-to-all communication in single precision                          F
 GLOBAL| FFTs using library dependent lengths                                  F
 GLOBAL| Grid backend                                                       AUTO
 GLOBAL| Global print level                                               MEDIUM
 GLOBAL| MPI I/O enabled                                                       T
 GLOBAL| Total number of message passing processes                            64
 GLOBAL| Number of threads for this process                                    1
 GLOBAL| This output is from process                                           0
 GLOBAL| Stack size for threads created by OpenMP (OMP_STACKSIZE)        default
 GLOBAL| CPU model name                 Intel(R) Xeon(R) Gold 6338 CPU @ 2.00GHz
 GLOBAL| CPUID                                                              1003

 MEMORY| system memory details [Kb]
 MEMORY|                        rank 0           min           max       average
 MEMORY| MemTotal            263407532     263407532     263407532     263407532
 MEMORY| MemFree             205450224     205449944     205450476     205450172
 MEMORY| Buffers                  3820          3820          3820          3820
 MEMORY| Cached               21699000      21699000      21699000      21699000
 MEMORY| Slab                  4445020       4445020       4445020       4445020
 MEMORY| SReclaimable           369472        369472        369472        369472
 MEMORY| MemLikelyFree       227522516     227522236     227522768     227522464


 *** Fundamental physical constants (SI units) ***

 *** Literature: B. J. Mohr and B. N. Taylor,
 ***             CODATA recommended values of the fundamental physical
 ***             constants: 2006, Web Version 5.1
 ***             http://physics.nist.gov/constants

 Speed of light in vacuum [m/s]                             2.99792458000000E+08
 Magnetic constant or permeability of vacuum [N/A**2]       1.25663706143592E-06
 Electric constant or permittivity of vacuum [F/m]          8.85418781762039E-12
 Planck constant (h) [J*s]                                  6.62606896000000E-34
 Planck constant (h-bar) [J*s]                              1.05457162825177E-34
 Elementary charge [C]                                      1.60217648700000E-19
 Electron mass [kg]                                         9.10938215000000E-31
 Electron g factor [ ]                                     -2.00231930436220E+00
 Proton mass [kg]                                           1.67262163700000E-27
 Fine-structure constant                                    7.29735253760000E-03
 Rydberg constant [1/m]                                     1.09737315685270E+07
 Avogadro constant [1/mol]                                  6.02214179000000E+23
 Boltzmann constant [J/K]                                   1.38065040000000E-23
 Atomic mass unit [kg]                                      1.66053878200000E-27
 Bohr radius [m]                                            5.29177208590000E-11

 *** Conversion factors ***

 [u] -> [a.u.]                                              1.82288848426455E+03
 [Angstrom] -> [Bohr] = [a.u.]                              1.88972613288564E+00
 [a.u.] = [Bohr] -> [Angstrom]                              5.29177208590000E-01
 [a.u.] -> [s]                                              2.41888432650478E-17
 [a.u.] -> [fs]                                             2.41888432650478E-02
 [a.u.] -> [J]                                              4.35974393937059E-18
 [a.u.] -> [N]                                              8.23872205491840E-08
 [a.u.] -> [K]                                              3.15774647902944E+05
 [a.u.] -> [kJ/mol]                                         2.62549961709828E+03
 [a.u.] -> [kcal/mol]                                       6.27509468713739E+02
 [a.u.] -> [Pa]                                             2.94210107994716E+13
 [a.u.] -> [bar]                                            2.94210107994716E+08
 [a.u.] -> [atm]                                            2.90362800883016E+08
 [a.u.] -> [eV]                                             2.72113838565563E+01
 [a.u.] -> [Hz]                                             6.57968392072181E+15
 [a.u.] -> [1/cm] (wave numbers)                            2.19474631370540E+05
 [a.u./Bohr**2] -> [1/cm]                                   5.14048714338585E+03
 

 CELL_TOP| Volume [angstrom^3]:                                      2165.805080
 CELL_TOP| Vector a [angstrom     9.047     0.000     0.000   |a| =     9.047400
 CELL_TOP| Vector b [angstrom     0.000     9.047     0.000   |b| =     9.047400
 CELL_TOP| Vector c [angstrom     0.000     0.000    26.459   |c| =    26.458900
 CELL_TOP| Angle (b,c), alpha [degree]:                                90.000000
 CELL_TOP| Angle (a,c), beta  [degree]:                                90.000000
 CELL_TOP| Angle (a,b), gamma [degree]:                                90.000000
 CELL_TOP| Numerically orthorhombic:                                         YES
 CELL_TOP| Periodicity                                                       XYZ
 
 GENERATE|  Preliminary Number of Bonds generated:                             0
 GENERATE|  Achieved consistency in connectivity generation.

 CELL| Volume [angstrom^3]:                                          2165.805080
 CELL| Vector a [angstrom]:       9.047     0.000     0.000   |a| =     9.047400
 CELL| Vector b [angstrom]:       0.000     9.047     0.000   |b| =     9.047400
 CELL| Vector c [angstrom]:       0.000     0.000    26.459   |c| =    26.458900
 CELL| Angle (b,c), alpha [degree]:                                    90.000000
 CELL| Angle (a,c), beta  [degree]:                                    90.000000
 CELL| Angle (a,b), gamma [degree]:                                    90.000000
 CELL| Numerically orthorhombic:                                             YES
 CELL| Periodicity                                                           XYZ

 CELL_REF| Volume [angstrom^3]:                                      2165.805080
 CELL_REF| Vector a [angstrom     9.047     0.000     0.000   |a| =     9.047400
 CELL_REF| Vector b [angstrom     0.000     9.047     0.000   |b| =     9.047400
 CELL_REF| Vector c [angstrom     0.000     0.000    26.459   |c| =    26.458900
 CELL_REF| Angle (b,c), alpha [degree]:                                90.000000
 CELL_REF| Angle (a,c), beta  [degree]:                                90.000000
 CELL_REF| Angle (a,b), gamma [degree]:                                90.000000
 CELL_REF| Numerically orthorhombic:                                         YES
 CELL_REF| Periodicity                                                       XYZ

 *******************************************************************************
 *******************************************************************************
 **                                                                           **
 **     #####                         ##              ##                      **
 **    ##   ##            ##          ##              ##                      **
 **   ##     ##                       ##            ######                    **
 **   ##     ##  ##   ##  ##   #####  ##  ##   ####   ##    #####    #####    **
 **   ##     ##  ##   ##  ##  ##      ## ##   ##      ##   ##   ##  ##   ##   **
 **   ##  ## ##  ##   ##  ##  ##      ####     ###    ##   ######   ######    **
 **    ##  ###   ##   ##  ##  ##      ## ##      ##   ##   ##       ##        **
 **     #######   #####   ##   #####  ##  ##  ####    ##    #####   ##        **
 **           ##                                                    ##        **
 **                                                                           **
 **                                                ... make the atoms dance   **
 **                                                                           **
 **            Copyright (C) by CP2K developers group (2000-2024)             **
 **                      J. Chem. Phys. 152, 194103 (2020)                    **
 **                                                                           **
 *******************************************************************************

 DFT| Spin unrestricted (spin-polarized) Kohn-Sham calculation               UKS
 DFT| Multiplicity                                                             2
 DFT| Number of spin states                                                    2
 DFT| Charge                                                                   0
 DFT| Self-interaction correction (SIC)                                       NO
 DFT| Cutoffs: density                                              1.000000E-10
 DFT|          gradient                                             1.000000E-10
 DFT|          tau                                                  1.000000E-10
 DFT|          cutoff_smoothing_range                               0.000000E+00
 DFT| XC density smoothing                                                  NONE
 DFT| XC derivatives                                                          PW

 FUNCTIONAL| PBE:
 FUNCTIONAL| J.P.Perdew, K.Burke, M.Ernzerhof, Phys. Rev. Letter, vol. 77, n 18,
 FUNCTIONAL|  pp. 3865-3868, (1996) {spin polarized}                            

 vdW POTENTIAL|                                                   Pair Potential
 vdW POTENTIAL|          DFT-D3 (Version 3.1)
 vdW POTENTIAL|          Potential Form: S. Grimme et al, JCP 132: 154104 (2010)
 vdW POTENTIAL|          Zero Damping
 vdW POTENTIAL|          Cutoff Radius [Bohr]:                             20.00
 vdW POTENTIAL|          s6 Scaling Factor:                               1.0000
 vdW POTENTIAL|          sr6 Scaling Factor:                              1.2170
 vdW POTENTIAL|          s8 Scaling Factor:                               0.7220
 vdW POTENTIAL|          Cutoff for CN calculation:                   0.1000E-05

 QS| Method:                                                                 GPW
 QS| Density plane wave grid type                        NON-SPHERICAL FULLSPACE
 QS| Number of grid levels:                                                    4
 QS| Density cutoff [a.u.]:                                                200.0
 QS| Multi grid cutoff [a.u.]: 1) grid level                               200.0
 QS|                           2) grid level                                66.7
 QS|                           3) grid level                                22.2
 QS|                           4) grid level                                 7.4
 QS| Grid level progression factor:                                          3.0
 QS| Relative density cutoff [a.u.]:                                        20.0
 QS| Interaction thresholds: eps_pgf_orb:                                3.2E-07
 QS|                         eps_filter_matrix:                          0.0E+00
 QS|                         eps_core_charge:                            1.0E-15
 QS|                         eps_rho_gspace:                             1.0E-13
 QS|                         eps_rho_rspace:                             1.0E-13
 QS|                         eps_gvg_rspace:                             3.2E-07
 QS|                         eps_ppl:                                    1.0E-02
 QS|                         eps_ppnl:                                   3.2E-09


 ATOMIC KIND INFORMATION

  1. Atomic kind: Mg                                    Number of atoms:      51

     Orbital Basis Set                                        DZVP-MOLOPT-SR-GTH

       Number of orbital shell sets:                                           1
       Number of orbital shells:                                               5
       Number of primitive Cartesian functions:                                7
       Number of Cartesian basis functions:                                    9
       Number of spherical basis functions:                                    9
       Norm type:                                                              2

       Normalised Cartesian orbitals:

                        Set   Shell   Orbital            Exponent    Coefficient

                          1       1    2s               30.653048       0.484709
                                                        12.924389       0.839969
                                                         4.968377      -0.417560
                                                         1.851828      -0.696909
                                                         0.673565      -0.194648
                                                         0.168626      -0.002319
                                                         0.059428      -0.000952

                          1       2    3s               30.653048      -0.080058
                                                        12.924389      -0.163891
                                                         4.968377       0.094488
                                                         1.851828       0.194057
                                                         0.673565       0.125641
                                                         0.168626      -0.090163
                                                         0.059428      -0.059314

                          1       3    4s               30.653048      -0.159449
                                                        12.924389       0.095780
                                                         4.968377      -0.082563
                                                         1.851828      -0.227029
                                                         0.673565      -0.181982
                                                         0.168626       0.392873
                                                         0.059428      -0.158429

                          1       4    3px              30.653048       4.106765
                                                        12.924389       5.139385
                                                         4.968377       3.494459
                                                         1.851828       1.337175
                                                         0.673565       0.228011
                                                         0.168626       0.004292
                                                         0.059428      -0.000255
                          1       4    3py              30.653048       4.106765
                                                        12.924389       5.139385
                                                         4.968377       3.494459
                                                         1.851828       1.337175
                                                         0.673565       0.228011
                                                         0.168626       0.004292
                                                         0.059428      -0.000255
                          1       4    3pz              30.653048       4.106765
                                                        12.924389       5.139385
                                                         4.968377       3.494459
                                                         1.851828       1.337175
                                                         0.673565       0.228011
                                                         0.168626       0.004292
                                                         0.059428      -0.000255

                          1       5    4px              30.653048       0.529694
                                                        12.924389       0.985876
                                                         4.968377       0.526402
                                                         1.851828       0.343987
                                                         0.673565      -0.055607
                                                         0.168626      -0.084885
                                                         0.059428      -0.021282
                          1       5    4py              30.653048       0.529694
                                                        12.924389       0.985876
                                                         4.968377       0.526402
                                                         1.851828       0.343987
                                                         0.673565      -0.055607
                                                         0.168626      -0.084885
                                                         0.059428      -0.021282
                          1       5    4pz              30.653048       0.529694
                                                        12.924389       0.985876
                                                         4.968377       0.526402
                                                         1.851828       0.343987
                                                         0.673565      -0.055607
                                                         0.168626      -0.084885
                                                         0.059428      -0.021282

       Atomic covalent radius [Angstrom]:                                  1.360

       Atomic van der Waals radius [Angstrom]:                             1.730

     GTH Potential information for                                   GTH-PBE-q10

       Description:                       Goedecker-Teter-Hutter pseudopotential
                                           Goedecker et al., PRB 54, 1703 (1996)
                                          Hartwigsen et al., PRB 58, 3641 (1998)
                                                      Krack, TCA 114, 145 (2005)

       Gaussian exponent of the core charge distribution:              13.456923
       Electronic configuration (s p d ...):                               4   6

       Parameters of the local part of the GTH pseudopotential:

                          rloc        C1          C2          C3          C4
                        0.192758  -20.575391    3.040167

       Parameters of the non-local part of the GTH pseudopotential:

                   l      r(l)      h(i,j,l)

                   0    0.141407   41.047292
                   1    0.102932   -9.985626

  2. Atomic kind: O                                     Number of atoms:      54

     Orbital Basis Set                                        DZVP-MOLOPT-SR-GTH

       Number of orbital shell sets:                                           1
       Number of orbital shells:                                               5
       Number of primitive Cartesian functions:                                5
       Number of Cartesian basis functions:                                   14
       Number of spherical basis functions:                                   13
       Norm type:                                                              2

       Normalised Cartesian orbitals:

                        Set   Shell   Orbital            Exponent    Coefficient

                          1       1    2s               10.389228       0.396646
                                                         3.849621       0.208811
                                                         1.388401      -0.301641
                                                         0.496955      -0.274061
                                                         0.162492      -0.033677

                          1       2    3s               10.389228       0.303673
                                                         3.849621       0.240943
                                                         1.388401      -0.313066
                                                         0.496955      -0.043055
                                                         0.162492       0.213991

                          1       3    3px              10.389228      -1.530415
                                                         3.849621      -1.371928
                                                         1.388401      -0.761951
                                                         0.496955      -0.253695
                                                         0.162492      -0.035541
                          1       3    3py              10.389228      -1.530415
                                                         3.849621      -1.371928
                                                         1.388401      -0.761951
                                                         0.496955      -0.253695
                                                         0.162492      -0.035541
                          1       3    3pz              10.389228      -1.530415
                                                         3.849621      -1.371928
                                                         1.388401      -0.761951
                                                         0.496955      -0.253695
                                                         0.162492      -0.035541

                          1       4    4px              10.389228      -0.565392
                                                         3.849621      -0.038231
                                                         1.388401      -0.382373
                                                         0.496955       0.179070
                                                         0.162492       0.122714
                          1       4    4py              10.389228      -0.565392
                                                         3.849621      -0.038231
                                                         1.388401      -0.382373
                                                         0.496955       0.179070
                                                         0.162492       0.122714
                          1       4    4pz              10.389228      -0.565392
                                                         3.849621      -0.038231
                                                         1.388401      -0.382373
                                                         0.496955       0.179070
                                                         0.162492       0.122714

                          1       5    4dx2             10.389228       1.867377
                                                         3.849621       0.670994
                                                         1.388401       1.353441
                                                         0.496955       0.273538
                                                         0.162492       0.006620
                          1       5    4dxy             10.389228       3.234392
                                                         3.849621       1.162195
                                                         1.388401       2.344229
                                                         0.496955       0.473781
                                                         0.162492       0.011466
                          1       5    4dxz             10.389228       3.234392
                                                         3.849621       1.162195
                                                         1.388401       2.344229
                                                         0.496955       0.473781
                                                         0.162492       0.011466
                          1       5    4dy2             10.389228       1.867377
                                                         3.849621       0.670994
                                                         1.388401       1.353441
                                                         0.496955       0.273538
                                                         0.162492       0.006620
                          1       5    4dyz             10.389228       3.234392
                                                         3.849621       1.162195
                                                         1.388401       2.344229
                                                         0.496955       0.473781
                                                         0.162492       0.011466
                          1       5    4dz2             10.389228       1.867377
                                                         3.849621       0.670994
                                                         1.388401       1.353441
                                                         0.496955       0.273538
                                                         0.162492       0.006620

       Atomic covalent radius [Angstrom]:                                  0.730

       Atomic van der Waals radius [Angstrom]:                             1.520

     GTH Potential information for                                    GTH-PBE-q6

       Description:                       Goedecker-Teter-Hutter pseudopotential
                                           Goedecker et al., PRB 54, 1703 (1996)
                                          Hartwigsen et al., PRB 58, 3641 (1998)
                                                      Krack, TCA 114, 145 (2005)

       Gaussian exponent of the core charge distribution:               8.360253
       Electronic configuration (s p d ...):                               2   4

       Parameters of the local part of the GTH pseudopotential:

                          rloc        C1          C2          C3          C4
                        0.244554  -16.667215    2.487311

       Parameters of the non-local part of the GTH pseudopotential:

                   l      r(l)      h(i,j,l)

                   0    0.220956   18.337458
                   1    0.211332

  3. Atomic kind: Al                                    Number of atoms:       3

     Orbital Basis Set                                        DZVP-MOLOPT-SR-GTH

       Number of orbital shell sets:                                           1
       Number of orbital shells:                                               5
       Number of primitive Cartesian functions:                                4
       Number of Cartesian basis functions:                                   14
       Number of spherical basis functions:                                   13
       Norm type:                                                              2

       Normalised Cartesian orbitals:

                        Set   Shell   Orbital            Exponent    Coefficient

                          1       1    2s                1.212902       0.147703
                                                         0.454181       0.176942
                                                         0.242419      -0.255412
                                                         0.078268      -0.047918

                          1       2    3s                1.212902      -0.205401
                                                         0.454181      -0.282784
                                                         0.242419       0.451246
                                                         0.078268      -0.188270

                          1       3    3px               1.212902       0.054477
                                                         0.454181       0.028713
                                                         0.242419      -0.164201
                                                         0.078268      -0.027375
                          1       3    3py               1.212902       0.054477
                                                         0.454181       0.028713
                                                         0.242419      -0.164201
                                                         0.078268      -0.027375
                          1       3    3pz               1.212902       0.054477
                                                         0.454181       0.028713
                                                         0.242419      -0.164201
                                                         0.078268      -0.027375

                          1       4    4px               1.212902      -0.161995
                                                         0.454181       0.034524
                                                         0.242419       0.284421
                                                         0.078268      -0.077718
                          1       4    4py               1.212902      -0.161995
                                                         0.454181       0.034524
                                                         0.242419       0.284421
                                                         0.078268      -0.077718
                          1       4    4pz               1.212902      -0.161995
                                                         0.454181       0.034524
                                                         0.242419       0.284421
                                                         0.078268      -0.077718

                          1       5    4dx2              1.212902       0.283929
                                                         0.454181       0.086552
                                                         0.242419       0.083045
                                                         0.078268       0.004803
                          1       5    4dxy              1.212902       0.491779
                                                         0.454181       0.149912
                                                         0.242419       0.143839
                                                         0.078268       0.008319
                          1       5    4dxz              1.212902       0.491779
                                                         0.454181       0.149912
                                                         0.242419       0.143839
                                                         0.078268       0.008319
                          1       5    4dy2              1.212902       0.283929
                                                         0.454181       0.086552
                                                         0.242419       0.083045
                                                         0.078268       0.004803
                          1       5    4dyz              1.212902       0.491779
                                                         0.454181       0.149912
                                                         0.242419       0.143839
                                                         0.078268       0.008319
                          1       5    4dz2              1.212902       0.283929
                                                         0.454181       0.086552
                                                         0.242419       0.083045
                                                         0.078268       0.004803

       Atomic covalent radius [Angstrom]:                                  1.180

       Atomic van der Waals radius [Angstrom]:                             1.840

     GTH Potential information for                                    GTH-PBE-q3

       Description:                       Goedecker-Teter-Hutter pseudopotential
                                           Goedecker et al., PRB 54, 1703 (1996)
                                          Hartwigsen et al., PRB 58, 3641 (1998)
                                                      Krack, TCA 114, 145 (2005)

       Gaussian exponent of the core charge distribution:               2.469136
       Electronic configuration (s p d ...):                               2   1

       Parameters of the local part of the GTH pseudopotential:

                          rloc        C1          C2          C3          C4
                        0.450000   -7.554761

       Parameters of the non-local part of the GTH pseudopotential:

                   l      r(l)      h(i,j,l)

                   0    0.487435    6.959938   -1.888836
                                   -1.888836    2.438477
                   1    0.562189    1.865299

  4. Atomic kind: Au                                    Number of atoms:       2

     Orbital Basis Set                                        DZVP-MOLOPT-SR-GTH

       Number of orbital shell sets:                                           1
       Number of orbital shells:                                               7
       Number of primitive Cartesian functions:                                5
       Number of Cartesian basis functions:                                   30
       Number of spherical basis functions:                                   25
       Norm type:                                                              2

       Normalised Cartesian orbitals:

                        Set   Shell   Orbital            Exponent    Coefficient

                          1       1    2s                2.950008       0.074626
                                                         1.563057      -0.007898
                                                         0.666664      -0.297688
                                                         0.251083       0.136809
                                                         0.081714       0.088198

                          1       2    3s                2.950008       0.228793
                                                         1.563057      -0.295041
                                                         0.666664       0.955676
                                                         0.251083      -0.809517
                                                         0.081714       0.207484

                          1       3    3px               2.950008       0.148824
                                                         1.563057       0.025430
                                                         0.666664      -0.123003
                                                         0.251083       0.033648
                                                         0.081714       0.059008
                          1       3    3py               2.950008       0.148824
                                                         1.563057       0.025430
                                                         0.666664      -0.123003
                                                         0.251083       0.033648
                                                         0.081714       0.059008
                          1       3    3pz               2.950008       0.148824
                                                         1.563057       0.025430
                                                         0.666664      -0.123003
                                                         0.251083       0.033648
                                                         0.081714       0.059008

                          1       4    4px               2.950008       0.169603
                                                         1.563057      -0.791540
                                                         0.666664       0.759522
                                                         0.251083      -0.513201
                                                         0.081714       0.071875
                          1       4    4py               2.950008       0.169603
                                                         1.563057      -0.791540
                                                         0.666664       0.759522
                                                         0.251083      -0.513201
                                                         0.081714       0.071875
                          1       4    4pz               2.950008       0.169603
                                                         1.563057      -0.791540
                                                         0.666664       0.759522
                                                         0.251083      -0.513201
                                                         0.081714       0.071875

                          1       5    4dx2              2.950008      -0.139595
                                                         1.563057       1.319655
                                                         0.666664       0.377081
                                                         0.251083       0.046872
                                                         0.081714       0.001393
                          1       5    4dxy              2.950008      -0.241786
                                                         1.563057       2.285709
                                                         0.666664       0.653124
                                                         0.251083       0.081185
                                                         0.081714       0.002412
                          1       5    4dxz              2.950008      -0.241786
                                                         1.563057       2.285709
                                                         0.666664       0.653124
                                                         0.251083       0.081185
                                                         0.081714       0.002412
                          1       5    4dy2              2.950008      -0.139595
                                                         1.563057       1.319655
                                                         0.666664       0.377081
                                                         0.251083       0.046872
                                                         0.081714       0.001393
                          1       5    4dyz              2.950008      -0.241786
                                                         1.563057       2.285709
                                                         0.666664       0.653124
                                                         0.251083       0.081185
                                                         0.081714       0.002412
                          1       5    4dz2              2.950008      -0.139595
                                                         1.563057       1.319655
                                                         0.666664       0.377081
                                                         0.251083       0.046872
                                                         0.081714       0.001393

                          1       6    5dx2              2.950008      -0.047309
                                                         1.563057      -0.613535
                                                         0.666664      -0.083031
                                                         0.251083      -0.023136
                                                         0.081714       0.021870
                          1       6    5dxy              2.950008      -0.081942
                                                         1.563057      -1.062673
                                                         0.666664      -0.143813
                                                         0.251083      -0.040072
                                                         0.081714       0.037880
                          1       6    5dxz              2.950008      -0.081942
                                                         1.563057      -1.062673
                                                         0.666664      -0.143813
                                                         0.251083      -0.040072
                                                         0.081714       0.037880
                          1       6    5dy2              2.950008      -0.047309
                                                         1.563057      -0.613535
                                                         0.666664      -0.083031
                                                         0.251083      -0.023136
                                                         0.081714       0.021870
                          1       6    5dyz              2.950008      -0.081942
                                                         1.563057      -1.062673
                                                         0.666664      -0.143813
                                                         0.251083      -0.040072
                                                         0.081714       0.037880
                          1       6    5dz2              2.950008      -0.047309
                                                         1.563057      -0.613535
                                                         0.666664      -0.083031
                                                         0.251083      -0.023136
                                                         0.081714       0.021870

                          1       7    5fx3              2.950008      -0.072925
                                                         1.563057      -0.623736
                                                         0.666664      -0.068759
                                                         0.251083      -0.019565
                                                         0.081714       0.005642
                          1       7    5fx2y             2.950008      -0.163065
                                                         1.563057      -1.394716
                                                         0.666664      -0.153751
                                                         0.251083      -0.043748
                                                         0.081714       0.012617
                          1       7    5fx2z             2.950008      -0.163065
                                                         1.563057      -1.394716
                                                         0.666664      -0.153751
                                                         0.251083      -0.043748
                                                         0.081714       0.012617
                          1       7    5fxy2             2.950008      -0.163065
                                                         1.563057      -1.394716
                                                         0.666664      -0.153751
                                                         0.251083      -0.043748
                                                         0.081714       0.012617
                          1       7    5fxyz             2.950008      -0.282436
                                                         1.563057      -2.415719
                                                         0.666664      -0.266304
                                                         0.251083      -0.075774
                                                         0.081714       0.021853
                          1       7    5fxz2             2.950008      -0.163065
                                                         1.563057      -1.394716
                                                         0.666664      -0.153751
                                                         0.251083      -0.043748
                                                         0.081714       0.012617
                          1       7    5fy3              2.950008      -0.072925
                                                         1.563057      -0.623736
                                                         0.666664      -0.068759
                                                         0.251083      -0.019565
                                                         0.081714       0.005642
                          1       7    5fy2z             2.950008      -0.163065
                                                         1.563057      -1.394716
                                                         0.666664      -0.153751
                                                         0.251083      -0.043748
                                                         0.081714       0.012617
                          1       7    5fyz2             2.950008      -0.163065
                                                         1.563057      -1.394716
                                                         0.666664      -0.153751
                                                         0.251083      -0.043748
                                                         0.081714       0.012617
                          1       7    5fz3              2.950008      -0.072925
                                                         1.563057      -0.623736
                                                         0.666664      -0.068759
                                                         0.251083      -0.019565
                                                         0.081714       0.005642

       Atomic covalent radius [Angstrom]:                                  1.340

       Atomic van der Waals radius [Angstrom]:                             1.660

     GTH Potential information for                                   GTH-PBE-q11

       Description:                       Goedecker-Teter-Hutter pseudopotential
                                           Goedecker et al., PRB 54, 1703 (1996)
                                          Hartwigsen et al., PRB 58, 3641 (1998)
                                                      Krack, TCA 114, 145 (2005)

       Gaussian exponent of the core charge distribution:               1.436369
       Electronic configuration (s p d ...):                           1   0  10

       Parameters of the local part of the GTH pseudopotential:

                          rloc        C1          C2          C3          C4
                        0.590000   10.517179

       Parameters of the non-local part of the GTH pseudopotential:

                   l      r(l)      h(i,j,l)

                   0    0.543847    5.786811   -2.250680
                                   -2.250680    2.905615
                   1    0.609173    4.284049   -4.071285
                                   -4.071285    4.817210
                   2    0.437309   -7.403281    3.010193
                                    3.010193   -3.413238


 MOLECULE KIND INFORMATION


 All atoms are their own molecule, skipping detailed information


 TOTAL NUMBERS AND MAXIMUM NUMBERS

  Total number of            - Atomic kinds:                                   4
                             - Atoms:                                        110
                             - Shell sets:                                   110
                             - Shells:                                       554
                             - Primitive Cartesian functions:                649
                             - Cartesian basis functions:                   1317
                             - Spherical basis functions:                   1250

  Maximum angular momentum of- Orbital basis functions:                        3
                             - Local part of the GTH pseudopotential:          2
                             - Non-local part of the GTH pseudopotential:      4


 MODULE QUICKSTEP: ATOMIC COORDINATES IN ANGSTROM

   Atom Kind Element         X             Y             Z       Z(eff)     Mass
      1    1 Mg   12      0.002311     -0.009731     10.633154  10.0000  24.3050
      2    2 O     8      1.494262      1.494943     10.565871   6.0000  15.9994
      3    2 O     8      0.004851     -0.030011     12.734420   6.0000  15.9994
      4    1 Mg   12      1.475586      1.515174     12.736310  10.0000  24.3050
      5    1 Mg   12     -0.007260     -0.020252     14.819896  10.0000  24.3050
      6    2 O     8      1.495082      1.501555     14.840117   6.0000  15.9994
      7    2 O     8     -0.016842     -0.009287     17.005657   6.0000  15.9994
      8    1 Mg   12      1.534843      1.514980     16.966376  10.0000  24.3050
      9    3 Al   13     -0.007725     -0.023358     19.090931   3.0000  26.9815
     10    2 O     8      1.484040      1.486440     19.122020   6.0000  15.9994
     11    2 O     8     -0.000729     -0.019626     21.226177   6.0000  15.9994
     12    1 Mg   12      1.487372      1.479934     21.250014  10.0000  24.3050
     13    1 Mg   12     -0.020278      3.005603     10.548861  10.0000  24.3050
     14    2 O     8      1.494467      4.535455     10.591412   6.0000  15.9994
     15    2 O     8      0.033052      2.991033     12.731333   6.0000  15.9994
     16    1 Mg   12      1.479605      4.530136     12.700228  10.0000  24.3050
     17    1 Mg   12      0.028282      3.008055     14.843374  10.0000  24.3050
     18    2 O     8      1.487908      4.504778     14.816214   6.0000  15.9994
     19    2 O     8     -0.012999      3.013088     16.934550   6.0000  15.9994
     20    1 Mg   12      1.546780      4.533373     16.955284  10.0000  24.3050
     21    1 Mg   12     -0.010045      3.054730     19.123578  10.0000  24.3050
     22    2 O     8      1.464287      4.509867     19.089890   6.0000  15.9994
     23    2 O     8      0.008345      3.024293     21.252174   6.0000  15.9994
     24    1 Mg   12      1.538272      4.536590     21.250599  10.0000  24.3050
     25    1 Mg   12      0.032412      6.033511     10.588496  10.0000  24.3050
     26    2 O     8      1.499587      7.538356     10.567616   6.0000  15.9994
     27    2 O     8     -0.016059      6.058740     12.715192   6.0000  15.9994
     28    1 Mg   12      1.486420      7.542461     12.676558  10.0000  24.3050
     29    1 Mg   12     -0.006673      6.049964     14.810531  10.0000  24.3050
     30    2 O     8      1.533211      7.536354     14.865112   6.0000  15.9994
     31    2 O     8      0.008775      5.986979     16.969515   6.0000  15.9994
     32    1 Mg   12      1.503168      7.531837     16.950637  10.0000  24.3050
     33    1 Mg   12      0.000831      6.009851     19.115343  10.0000  24.3050
     34    2 O     8      1.452046      7.518613     19.141600   6.0000  15.9994
     35    2 O     8     -0.004797      6.023856     21.253901   6.0000  15.9994
     36    1 Mg   12      1.522495      7.537946     21.273599  10.0000  24.3050
     37    1 Mg   12      3.011554     -0.007156     10.574247  10.0000  24.3050
     38    2 O     8      4.552465      1.507394     10.589850   6.0000  15.9994
     39    2 O     8      3.053569     -0.011782     12.730826   6.0000  15.9994
     40    1 Mg   12      4.512286      1.494679     12.690547  10.0000  24.3050
     41    1 Mg   12      3.031694     -0.039990     14.855271  10.0000  24.3050
     42    2 O     8      4.511767      1.509041     14.825221   6.0000  15.9994
     43    2 O     8      3.034945      0.012573     16.971591   6.0000  15.9994
     44    1 Mg   12      4.521379      1.495269     16.984631  10.0000  24.3050
     45    1 Mg   12      2.976488      0.012381     19.108341  10.0000  24.3050
     46    2 O     8      4.485716      1.520612     19.100325   6.0000  15.9994
     47    2 O     8      3.006754      0.021687     21.238045   6.0000  15.9994
     48    1 Mg   12      4.525809      1.478364     21.229533  10.0000  24.3050
     49    1 Mg   12      3.021545      3.005043     10.573923  10.0000  24.3050
     50    2 O     8      4.529193      4.541088     10.594567   6.0000  15.9994
     51    2 O     8      3.057183      3.024864     12.687129   6.0000  15.9994
     52    1 Mg   12      4.510646      4.502065     12.744577  10.0000  24.3050
     53    1 Mg   12      3.000259      2.997147     14.865231  10.0000  24.3050
     54    2 O     8      4.538826      4.513562     14.851787   6.0000  15.9994
     55    2 O     8      3.016418      3.011283     16.962192   6.0000  15.9994
     56    1 Mg   12      4.539438      4.515221     16.988134  10.0000  24.3050
     57    3 Al   13      3.023927      2.988754     19.123050   3.0000  26.9815
     58    2 O     8      4.540980      4.492566     19.104342   6.0000  15.9994
     59    2 O     8      3.005251      3.041103     21.218135   6.0000  15.9994
     60    1 Mg   12      4.524940      4.541831     21.250132  10.0000  24.3050
     61    1 Mg   12      3.015703      6.033772     10.603875  10.0000  24.3050
     62    2 O     8      4.528611      7.560068     10.603225   6.0000  15.9994
     63    2 O     8      2.976456      6.024658     12.784750   6.0000  15.9994
     64    1 Mg   12      4.501939      7.554831     12.728983  10.0000  24.3050
     65    1 Mg   12      3.019361      6.062247     14.858613  10.0000  24.3050
     66    2 O     8      4.499707      7.531327     14.829709   6.0000  15.9994
     67    2 O     8      3.026494      6.040108     16.903895   6.0000  15.9994
     68    1 Mg   12      4.522543      7.528004     16.956492  10.0000  24.3050
     69    1 Mg   12      3.024708      6.039518     19.102659  10.0000  24.3050
     70    2 O     8      4.476178      7.547230     19.122957   6.0000  15.9994
     71    2 O     8      3.020624      6.062625     21.256513   6.0000  15.9994
     72    1 Mg   12      4.460917      7.547158     21.270987  10.0000  24.3050
     73    1 Mg   12      6.050443      0.020614     10.572621  10.0000  24.3050
     74    2 O     8      7.510040      1.530420     10.570927   6.0000  15.9994
     75    2 O     8      6.057224      0.026502     12.726727   6.0000  15.9994
     76    1 Mg   12      7.526155      1.506825     12.689726  10.0000  24.3050
     77    1 Mg   12      6.047113      0.006512     14.852836  10.0000  24.3050
     78    2 O     8      7.540704      1.474506     14.790508   6.0000  15.9994
     79    2 O     8      6.032071      0.011814     16.993056   6.0000  15.9994
     80    1 Mg   12      7.522748      1.527266     16.984337  10.0000  24.3050
     81    1 Mg   12      6.039809      0.010182     19.068256  10.0000  24.3050
     82    2 O     8      7.535485      1.488032     19.096239   6.0000  15.9994
     83    2 O     8      6.006269      0.021125     21.215458   6.0000  15.9994
     84    1 Mg   12      7.547974      1.530624     21.214389  10.0000  24.3050
     85    1 Mg   12      6.039020      3.048407     10.603430  10.0000  24.3050
     86    2 O     8      7.523818      4.528197     10.587436   6.0000  15.9994
     87    2 O     8      6.019120      2.986010     12.714779   6.0000  15.9994
     88    1 Mg   12      7.540622      4.497643     12.709714  10.0000  24.3050
     89    1 Mg   12      6.042195      3.014924     14.869134  10.0000  24.3050
     90    2 O     8      7.541906      4.493112     14.824917   6.0000  15.9994
     91    2 O     8      6.020721      2.995057     16.995544   6.0000  15.9994
     92    1 Mg   12      7.542104      4.515465     16.954418  10.0000  24.3050
     93    1 Mg   12      6.010655      2.993315     19.098894  10.0000  24.3050
     94    2 O     8      7.554857      4.539258     19.130693   6.0000  15.9994
     95    2 O     8      6.019718      3.052811     21.251097   6.0000  15.9994
     96    1 Mg   12      7.524753      4.520708     21.252598  10.0000  24.3050
     97    1 Mg   12      6.047592      6.042768     10.594536  10.0000  24.3050
     98    2 O     8      7.509236      7.536791     10.605243   6.0000  15.9994
     99    2 O     8      6.054573      6.012698     12.714149   6.0000  15.9994
    100    1 Mg   12      7.555855      7.520298     12.716422  10.0000  24.3050
    101    1 Mg   12      6.065003      6.046185     14.842662  10.0000  24.3050
    102    2 O     8      7.569632      7.536514     14.879491   6.0000  15.9994
    103    2 O     8      6.053021      6.047501     16.974662   6.0000  15.9994
    104    1 Mg   12      7.577615      7.532283     16.979021  10.0000  24.3050
    105    3 Al   13      6.040461      6.013650     19.137603   3.0000  26.9815
    106    2 O     8      7.553964      7.529029     19.094360   6.0000  15.9994
    107    2 O     8      6.038900      6.033056     21.270027   6.0000  15.9994
    108    1 Mg   12      7.542630      7.520247     21.222478  10.0000  24.3050
    109    4 Au   79      5.674723      5.853591      7.538273  11.0000 196.9666
    110    4 Au   79      3.313418      5.923471      7.332536  11.0000 196.9666



 SCF PARAMETERS         Density guess:                                   RESTART
                        --------------------------------------------------------
                        max_scf:                                              25
                        max_scf_history:                                       0
                        max_diis:                                              4
                        --------------------------------------------------------
                        eps_scf:                                        1.00E-06
                        eps_scf_history:                                0.00E+00
                        eps_diis:                                       1.00E-01
                        eps_eigval:                                     1.00E-05
                        --------------------------------------------------------
                        level_shift [a.u.]:                             0.000000
                        --------------------------------------------------------
                        Outer loop SCF in use 
                        No variables optimised in outer loop
                        eps_scf                                         1.00E-06
                        max_scf                                               25
                        No outer loop optimization
                        step_size                                       5.00E-01

 PW_GRID| Information for grid number                                          1
 PW_GRID| Grid distributed over                                    64 processors
 PW_GRID| Real space group dimensions                                    64    1
 PW_GRID| the grid is blocked:                                                NO
 PW_GRID| Cutoff [a.u.]                                                    200.0
 PW_GRID| spherical cutoff:                                                   NO
 PW_GRID|   Bounds   1            -60      59                Points:         120
 PW_GRID|   Bounds   2            -60      59                Points:         120
 PW_GRID|   Bounds   3           -160     159                Points:         320
 PW_GRID| Volume element (a.u.^3)  0.3172E-02     Volume (a.u.^3)     14615.5773
 PW_GRID| Grid span                                                    FULLSPACE
 PW_GRID|   Distribution                         Average         Max         Min
 PW_GRID|   G-Vectors                            72000.0       72000       72000
 PW_GRID|   G-Rays                                 600.0         600         600
 PW_GRID|   Real Space Points                    72000.0       76800       38400

 PW_GRID| Information for grid number                                          2
 PW_GRID| Number of the reference grid                                         1
 PW_GRID| Grid distributed over                                    64 processors
 PW_GRID| Real space group dimensions                                    64    1
 PW_GRID| the grid is blocked:                                                NO
 PW_GRID| Cutoff [a.u.]                                                     66.7
 PW_GRID| spherical cutoff:                                                   NO
 PW_GRID|   Bounds   1            -32      31                Points:          64
 PW_GRID|   Bounds   2            -32      31                Points:          64
 PW_GRID|   Bounds   3            -96      95                Points:         192
 PW_GRID| Volume element (a.u.^3)  0.1858E-01     Volume (a.u.^3)     14615.5773
 PW_GRID| Grid span                                                    FULLSPACE
 PW_GRID|   Distribution                         Average         Max         Min
 PW_GRID|   G-Vectors                            12288.0       12864       11712
 PW_GRID|   G-Rays                                 192.0         201         183
 PW_GRID|   Real Space Points                    12288.0       12288       12288

 PW_GRID| Information for grid number                                          3
 PW_GRID| Number of the reference grid                                         1
 PW_GRID| Grid distributed over                                    64 processors
 PW_GRID| Real space group dimensions                                     8    8
 PW_GRID| the grid is blocked:                                                NO
 PW_GRID| Cutoff [a.u.]                                                     22.2
 PW_GRID| spherical cutoff:                                                   NO
 PW_GRID|   Bounds   1            -20      19                Points:          40
 PW_GRID|   Bounds   2            -20      19                Points:          40
 PW_GRID|   Bounds   3            -54      53                Points:         108
 PW_GRID| Volume element (a.u.^3)  0.8458E-01     Volume (a.u.^3)     14615.5773
 PW_GRID| Grid span                                                    FULLSPACE
 PW_GRID|   Distribution                         Average         Max         Min
 PW_GRID|   G-Vectors                             2700.0        2920        2320
 PW_GRID|   G-Rays                                  67.5          73          58
 PW_GRID|   Real Space Points                     2700.0        2700        2700

 PW_GRID| Information for grid number                                          4
 PW_GRID| Number of the reference grid                                         1
 PW_GRID| Grid distributed over                                    64 processors
 PW_GRID| Real space group dimensions                                     8    8
 PW_GRID| the grid is blocked:                                                NO
 PW_GRID| Cutoff [a.u.]                                                      7.4
 PW_GRID| spherical cutoff:                                                   NO
 PW_GRID|   Bounds   1            -12      11                Points:          24
 PW_GRID|   Bounds   2            -12      11                Points:          24
 PW_GRID|   Bounds   3            -32      31                Points:          64
 PW_GRID| Volume element (a.u.^3)  0.3965         Volume (a.u.^3)     14615.5773
 PW_GRID| Grid span                                                    FULLSPACE
 PW_GRID|   Distribution                         Average         Max         Min
 PW_GRID|   G-Vectors                              576.0         720         432
 PW_GRID|   G-Rays                                  24.0          30          18
 PW_GRID|   Real Space Points                      576.0         576         576

 POISSON| Solver                                                        PERIODIC
 POISSON| Periodicity                                                        XYZ

 RS_GRID| Information for grid number                                          1
 RS_GRID|   Bounds   1            -60      59                Points:         120
 RS_GRID|   Bounds   2            -60      59                Points:         120
 RS_GRID|   Bounds   3           -160     159                Points:         320
 RS_GRID| Real space distribution over                                 64 groups
 RS_GRID| Real space distribution along direction                              3
 RS_GRID| Border size                                                         36
 RS_GRID|   Distribution                         Average         Max         Min
 RS_GRID|   Planes                                  77.0          77          77

 RS_GRID| Information for grid number                                          2
 RS_GRID|   Bounds   1            -32      31                Points:          64
 RS_GRID|   Bounds   2            -32      31                Points:          64
 RS_GRID|   Bounds   3            -96      95                Points:         192
 RS_GRID| Real space distribution over                                 64 groups
 RS_GRID| Real space distribution along direction                              3
 RS_GRID| Border size                                                         25
 RS_GRID|   Distribution                         Average         Max         Min
 RS_GRID|   Planes                                  53.0          53          53

 RS_GRID| Information for grid number                                          3
 RS_GRID|   Bounds   1            -20      19                Points:          40
 RS_GRID|   Bounds   2            -20      19                Points:          40
 RS_GRID|   Bounds   3            -54      53                Points:         108
 RS_GRID| Real space fully replicated
 RS_GRID| Group size                                                           1

 RS_GRID| Information for grid number                                          4
 RS_GRID|   Bounds   1            -12      11                Points:          24
 RS_GRID|   Bounds   2            -12      11                Points:          24
 RS_GRID|   Bounds   3            -32      31                Points:          64
 RS_GRID| Real space fully replicated
 RS_GRID| Group size                                                           1

 Spin 1

 Number of electrons:                                                        433
 Number of occupied orbitals:                                                433
 Number of molecular orbitals:                                               433

 Spin 2

 Number of electrons:                                                        432
 Number of occupied orbitals:                                                432
 Number of molecular orbitals:                                               432

 Number of orbital functions:                                               1250
 Number of independent orbital functions:                                   1250

 Extrapolation method: initial_guess


 SCF WAVEFUNCTION OPTIMIZATION

  ----------------------------------- OT ---------------------------------------
  Minimizer      : DIIS                : direct inversion
                                         in the iterative subspace
                                         using   7 DIIS vectors
                                         safer DIIS on
  Preconditioner : FULL_SINGLE_INVERSE : inversion of 
                                         H + eS - 2*(Sc)(c^T*H*c+const)(Sc)^T
  Precond_solver : DEFAULT
  stepsize       :    0.08000000                  energy_gap     :    0.10000000
  eps_taylor     :   0.10000E-15                  max_taylor     :             4
  ----------------------------------- OT ---------------------------------------

  Step     Update method      Time    Convergence         Total energy    Change
  ------------------------------------------------------------------------------
     1 OT DIIS     0.80E-01    0.9     0.00000076     -4172.2930599094 -4.17E+03

  *** SCF run converged in     1 steps ***


  Electronic density on regular grids:       -864.9981636221        0.0018363779
  Core density on regular grids:              865.0000000000       -0.0000000000
  Total charge density on r-space grids:        0.0018363779
  Total charge density g-space grids:           0.0018363779

  Overlap energy of the core charge distribution:               0.00000212019780
  Self energy of the core charge distribution:              -9838.72951267784083
  Core Hamiltonian energy:                                   2893.20131511352747
  Hartree energy:                                            3422.55726648690870
  Exchange-correlation energy:                               -648.66159807737449
  Dispersion energy:                                           -0.66053287482862

  Total energy:                                             -4172.29305990941066

  outer SCF iter =    1 RMS gradient =   0.76E-06 energy =      -4172.2930599094
  outer SCF loop converged in   1 iterations or    1 steps


  Integrated absolute spin density  :                               1.0881310850
  Ideal and single determinant S**2 :                    0.750000       0.755501

 The sum of alpha and beta density is written in cube file format to the file:

 cp2k-ELECTRON_DENSITY-1_0.cube

 The spin density is written in cube file format to the file:

 cp2k-SPIN_DENSITY-1_0.cube

 !-----------------------------------------------------------------------------!
                     Mulliken Population Analysis

 #  Atom  Element  Kind  Atomic population (alpha,beta) Net charge  Spin moment
       1     Mg       1         4.431183     4.430508     1.138308     0.000675
       2     O        2         3.560471     3.560725    -1.121195    -0.000254
       3     O        2         3.550047     3.549929    -1.099976     0.000119
       4     Mg       1         4.458876     4.459217     1.081906    -0.000341
       5     Mg       1         4.458130     4.455970     1.085901     0.002160
       6     O        2         3.542073     3.542048    -1.084121     0.000025
       7     O        2         3.492702     3.493474    -0.986176    -0.000773
       8     Mg       1         4.476983     4.473627     1.049391     0.003356
       9     Al       3         1.005488     0.998959     0.995552     0.006529
      10     O        2         3.469096     3.469025    -0.938121     0.000071
      11     O        2         3.489103     3.488597    -0.977699     0.000506
      12     Mg       1         4.509971     4.488422     1.001608     0.021549
      13     Mg       1         4.426670     4.426199     1.147131     0.000471
      14     O        2         3.553617     3.552396    -1.106013     0.001221
      15     O        2         3.546293     3.546175    -1.092468     0.000118
      16     Mg       1         4.458399     4.457597     1.084004     0.000802
      17     Mg       1         4.461729     4.461023     1.077247     0.000706
      18     O        2         3.537023     3.537039    -1.074062    -0.000016
      19     O        2         3.530697     3.531187    -1.061883    -0.000490
      20     Mg       1         4.472415     4.472428     1.055157    -0.000012
      21     Mg       1         4.484988     4.482685     1.032327     0.002302
      22     O        2         3.497986     3.497501    -0.995487     0.000486
      23     O        2         3.537048     3.537709    -1.074756    -0.000661
      24     Mg       1         4.477602     4.460003     1.062395     0.017599
      25     Mg       1         4.421401     4.422659     1.155941    -0.001258
      26     O        2         3.555313     3.554536    -1.109850     0.000777
      27     O        2         3.546784     3.546601    -1.093384     0.000183
      28     Mg       1         4.462904     4.462253     1.074843     0.000651
      29     Mg       1         4.461289     4.460439     1.078272     0.000850
      30     O        2         3.540841     3.540919    -1.081759    -0.000078
      31     O        2         3.530086     3.530582    -1.060669    -0.000496
      32     Mg       1         4.481553     4.481118     1.037329     0.000435
      33     Mg       1         4.488261     4.486768     1.024971     0.001493
      34     O        2         3.492411     3.491580    -0.983991     0.000832
      35     O        2         3.536598     3.536924    -1.073521    -0.000326
      36     Mg       1         4.486015     4.460290     1.053696     0.025725
      37     Mg       1         4.426616     4.424705     1.148679     0.001911
      38     O        2         3.561964     3.561863    -1.123827     0.000100
      39     O        2         3.542547     3.542485    -1.085032     0.000062
      40     Mg       1         4.453301     4.453012     1.093687     0.000289
      41     Mg       1         4.461011     4.460010     1.078979     0.001001
      42     O        2         3.533662     3.533695    -1.067357    -0.000033
      43     O        2         3.533630     3.534212    -1.067842    -0.000582
      44     Mg       1         4.475871     4.475775     1.048353     0.000096
      45     Mg       1         4.492944     4.490330     1.016725     0.002614
      46     O        2         3.494265     3.493731    -0.987997     0.000534
      47     O        2         3.541298     3.542494    -1.083793    -0.001196
      48     Mg       1         4.479213     4.461469     1.059319     0.017744
      49     Mg       1         4.425250     4.423097     1.151653     0.002153
      50     O        2         3.535706     3.534254    -1.069961     0.001452
      51     O        2         3.540724     3.540583    -1.081307     0.000141
      52     Mg       1         4.458356     4.458351     1.083293     0.000005
      53     Mg       1         4.464880     4.461351     1.073769     0.003530
      54     O        2         3.535809     3.535953    -1.071762    -0.000144
      55     O        2         3.500998     3.502170    -1.003168    -0.001172
      56     Mg       1         4.477039     4.473574     1.049387     0.003466
      57     Al       3         1.042047     1.012682     0.945271     0.029365
      58     O        2         3.461165     3.466112    -0.927277    -0.004947
      59     O        2         3.483539     3.480611    -0.964150     0.002928
      60     Mg       1         4.505815     4.491663     1.002521     0.014152
      61     Mg       1         4.460361     4.447722     1.091917     0.012638
      62     O        2         3.540264     3.539389    -1.079653     0.000875
      63     O        2         3.544068     3.543977    -1.088045     0.000091
      64     Mg       1         4.462957     4.462921     1.074122     0.000035
      65     Mg       1         4.458261     4.456564     1.085175     0.001697
      66     O        2         3.544442     3.544568    -1.089009    -0.000126
      67     O        2         3.536189     3.536757    -1.072946    -0.000568
      68     Mg       1         4.473646     4.473706     1.052648    -0.000060
      69     Mg       1         4.494827     4.493240     1.011933     0.001588
      70     O        2         3.492433     3.491697    -0.984130     0.000736
      71     O        2         3.540927     3.541662    -1.082588    -0.000735
      72     Mg       1         4.480097     4.460600     1.059302     0.019497
      73     Mg       1         4.419578     4.419211     1.161211     0.000366
      74     O        2         3.563852     3.563641    -1.127492     0.000211
      75     O        2         3.539531     3.539331    -1.078862     0.000200
      76     Mg       1         4.457583     4.456932     1.085485     0.000651
      77     Mg       1         4.461994     4.461359     1.076647     0.000635
      78     O        2         3.535830     3.536060    -1.071890    -0.000230
      79     O        2         3.534941     3.535568    -1.070509    -0.000628
      80     Mg       1         4.477265     4.476428     1.046307     0.000838
      81     Mg       1         4.490828     4.488722     1.020450     0.002106
      82     O        2         3.501178     3.500470    -1.001649     0.000708
      83     O        2         3.535220     3.535627    -1.070847    -0.000406
      84     Mg       1         4.481561     4.463535     1.054903     0.018026
[...]
 flops    25 x    32 x    25             60320000       0.0%    100.0%      0.0%     
 flops    13 x     9 x    48             65235456       0.0%    100.0%      0.0%     
 flops     9 x    13 x    48             65370240       0.0%    100.0%      0.0%     
 flops    13 x     9 x    49             66594528       0.0%    100.0%      0.0%     
 flops     9 x    13 x    49             66732120       0.0%    100.0%      0.0%     
 flops   154 x    32 x   157             74274816       0.0%    100.0%      0.0%     
 flops   157 x    32 x   154             74274816       0.0%    100.0%      0.0%     
 flops   158 x    32 x   157             76204032       0.0%    100.0%      0.0%     
 flops   157 x    32 x   158             76204032       0.0%    100.0%      0.0%     
 flops   157 x    64 x    32             77168640       0.0%    100.0%      0.0%     
 flops    32 x    64 x   157             77168640       0.0%    100.0%      0.0%     
 flops    64 x    32 x   157             77168640       0.0%    100.0%      0.0%     
 flops   157 x    32 x    64             77168640       0.0%    100.0%      0.0%     
 flops    13 x    25 x    64             89856000       0.0%    100.0%      0.0%     
 flops    25 x    13 x    64             93600000       0.0%    100.0%      0.0%     
 flops     9 x    17 x     9            100284156       0.0%    100.0%      0.0%     
 flops     9 x    16 x     9            101126880       0.0%    100.0%      0.0%     
 flops    13 x    13 x    48            103330656       0.0%    100.0%      0.0%     
 flops    13 x    13 x    49            105483378       0.0%    100.0%      0.0%     
 flops   154 x    32 x   154            109283328       0.0%    100.0%      0.0%     
 flops     9 x     9 x    32            109983744       0.0%    100.0%      0.0%     
 flops   158 x    32 x   154            112121856       0.0%    100.0%      0.0%     
 flops   154 x    32 x   158            112121856       0.0%    100.0%      0.0%     
 flops    32 x    64 x   154            113541120       0.0%    100.0%      0.0%     
 flops   154 x    32 x    64            113541120       0.0%    100.0%      0.0%     
 flops   154 x    64 x    32            113541120       0.0%    100.0%      0.0%     
 flops    64 x    32 x   154            113541120       0.0%    100.0%      0.0%     
 flops   158 x    32 x   158            115034112       0.0%    100.0%      0.0%     
 flops   158 x    32 x    64            116490240       0.0%    100.0%      0.0%     
 flops    32 x    64 x   158            116490240       0.0%    100.0%      0.0%     
 flops   158 x    64 x    32            116490240       0.0%    100.0%      0.0%     
 flops    64 x    32 x   158            116490240       0.0%    100.0%      0.0%     
 flops    64 x    64 x    64            131072000       0.0%    100.0%      0.0%     
 flops    32 x    32 x   157            132472832       0.0%    100.0%      0.0%     
 flops     9 x    17 x    13            161896644       0.0%    100.0%      0.0%     
 flops    13 x    17 x     9            161896644       0.0%    100.0%      0.0%     
 flops     9 x    16 x    13            163257120       0.0%    100.0%      0.0%     
 flops    13 x    16 x     9            163257120       0.0%    100.0%      0.0%     
 flops    13 x     9 x    32            173961216       0.0%    100.0%      0.0%     
 flops     9 x    13 x    32            174320640       0.0%    100.0%      0.0%     
 flops    32 x    32 x   154            194912256       0.0%    100.0%      0.0%     
 flops    32 x    32 x   158            199974912       0.0%    100.0%      0.0%     
 flops    13 x    17 x    13            248330628       0.0%    100.0%      0.0%     
 flops    13 x    16 x    13            250417440       0.0%    100.0%      0.0%     
 flops   157 x    64 x   157            252405760       0.0%    100.0%      0.0%     
 flops    13 x    13 x    32            275548416       0.0%    100.0%      0.0%     
 flops     9 x    32 x    32            342171648       0.0%    100.0%      0.0%     
 flops   157 x    64 x   154            371374080       0.0%    100.0%      0.0%     
 flops   154 x    64 x   157            371374080       0.0%    100.0%      0.0%     
 flops   157 x    64 x   158            381020160       0.0%    100.0%      0.0%     
 flops   158 x    64 x   157            381020160       0.0%    100.0%      0.0%     
 flops    64 x    64 x   157            385843200       0.0%    100.0%      0.0%     
 flops   157 x    64 x    64            385843200       0.0%    100.0%      0.0%     
 flops   154 x    64 x   154            546416640       0.0%    100.0%      0.0%     
 flops     9 x     9 x    64            549918720       0.0%    100.0%      0.0%     
 flops    13 x    32 x    32            552394752       0.0%    100.0%      0.0%     
 flops    25 x    32 x     9            553737600       0.0%    100.0%      0.0%     
 flops     9 x    32 x    25            553737600       0.0%    100.0%      0.0%     
 flops   158 x    64 x   154            560609280       0.0%    100.0%      0.0%     
 flops   154 x    64 x   158            560609280       0.0%    100.0%      0.0%     
 flops    64 x    64 x   154            567705600       0.0%    100.0%      0.0%     
 flops   154 x    64 x    64            567705600       0.0%    100.0%      0.0%     
 flops   158 x    64 x   158            575170560       0.0%    100.0%      0.0%     
 flops    64 x    64 x   158            582451200       0.0%    100.0%      0.0%     
 flops   158 x    64 x    64            582451200       0.0%    100.0%      0.0%     
 flops    25 x    32 x    13            854734400       0.0%    100.0%      0.0%     
 flops    13 x    32 x    25            854734400       0.0%    100.0%      0.0%     
 flops    13 x     9 x    64            869806080       0.0%    100.0%      0.0%     
 flops     9 x    13 x    64            871603200       0.0%    100.0%      0.0%     
 flops    13 x    13 x    64           1377742080       0.0%    100.0%      0.0%     
 flops     9 x    32 x     9           5083311168       0.0%    100.0%      0.0%     
 flops    13 x    32 x     9           8206391232       0.0%    100.0%      0.0%     
 flops     9 x    32 x    13           8206391232       0.0%    100.0%      0.0%     
 flops    13 x    32 x    13          12587649984       0.0%    100.0%      0.0%     
 flops inhomo. stacks                           0       0.0%      0.0%      0.0%
 flops total                        56.650557E+09       0.0%    100.0%      0.0%
 flops max/rank                      1.076484E+09       0.0%    100.0%      0.0%
 matmuls inhomo. stacks                         0       0.0%      0.0%      0.0%
 matmuls total                            5286456       0.0%    100.0%      0.0%
 number of processed stacks                118812       0.0%    100.0%      0.0%
 average stack size                                     0.0      44.5       0.0
 marketing flops                    65.088942E+09
 -------------------------------------------------------------------------------
 # multiplications                             63
 max memory usage/rank             590.061568E+06
 # max total images/rank                        1
 # max 3D layers                                1
 # MPI messages exchanged                   56448
 MPI messages size (bytes):
  total size                         5.235574E+09
  min size                           0.000000E+00
  max size                         199.712000E+03
  average size                      92.750383E+03
 MPI breakdown and total messages size (bytes):
             size <=      128                2576                        0
       128 < size <=     8192                 364                  2981888
      8192 < size <=    32768                5124                124241544
     32768 < size <=   131072               33600               2270590000
    131072 < size <=  4194304               14784               2837760128
   4194304 < size <= 16777216                   0                        0
  16777216 < size                               0                        0
 -------------------------------------------------------------------------------
 -                                                                             -
 -                      DBCSR MESSAGE PASSING PERFORMANCE                      -
 -                                                                             -
 -------------------------------------------------------------------------------
 ROUTINE             CALLS      AVE VOLUME [Bytes]
 MP_Bcast              269                     12.
 MP_Allreduce          826                     23.
 MP_Alltoall           795                  38258.
 MP_ISend             2008                  44214.
 MP_IRecv             2008                  43595.
 -------------------------------------------------------------------------------

 -------------------------------------------------------------------------------
 -                                                                             -
 -                                DBM STATISTICS                               -
 -                                                                             -
 -------------------------------------------------------------------------------
    M  x    N  x    K                                          COUNT     PERCENT
 -------------------------------------------------------------------------------

 -------------------------------------------------------------------------------
 -                                                                             -
 -                                GRID STATISTICS                              -
 -                                                                             -
 -------------------------------------------------------------------------------
 LP    KERNEL             BACKEND                              COUNT     PERCENT
 3     collocate ortho    CPU                                 365172      22.27%
 3     integrate ortho    CPU                                 335806      20.48%
 2     collocate ortho    CPU                                 306440      18.69%
 4     integrate ortho    CPU                                 244458      14.91%
 2     integrate ortho    CPU                                 153220       9.35%
 4     collocate ortho    CPU                                 123744       7.55%
 5     integrate ortho    CPU                                  64880       3.96%
 0     collocate general  CPU                                  14080       0.86%
 0     integrate general  CPU                                  14080       0.86%
 1     integrate general  CPU                                   7040       0.43%
 5     collocate ortho    CPU                                   6016       0.37%
 6     integrate ortho    CPU                                   3414       0.21%
 6     collocate ortho    CPU                                    812       0.05%
 7     integrate ortho    CPU                                    406       0.02%
 -------------------------------------------------------------------------------

 MEMORY| Estimated peak process memory [MiB]                                 563

 -------------------------------------------------------------------------------
 ----                             MULTIGRID INFO                            ----
 -------------------------------------------------------------------------------
 count for grid        1:        1570146          cutoff [a.u.]          200.00
 count for grid        2:        1068825          cutoff [a.u.]           66.67
 count for grid        3:         611331          cutoff [a.u.]           22.22
 count for grid        4:         365405          cutoff [a.u.]            7.41
 total gridlevel count  :        3615707

 -------------------------------------------------------------------------------
 -                                                                             -
 -                         MESSAGE PASSING PERFORMANCE                         -
 -                                                                             -
 -------------------------------------------------------------------------------

 ROUTINE             CALLS      AVE VOLUME [Bytes]
 MP_Group                4
 MP_Bcast            17076                  45715.
 MP_Allreduce        32880                    669.
 MP_Sync                 8
 MP_Alltoall           110               19567311.
 MP_SendRecv       1758078                  83245.
 MP_ISendRecv          504                  13104.
 MP_Wait              2397
 MP_comm_split           2
 MP_ISend             1696                  76343.
 MP_IRecv             1696                  76320.
 MP_Write_All            4                 300248.
 -------------------------------------------------------------------------------


 -------------------------------------------------------------------------------
 -                                                                             -
 -                           R E F E R E N C E S                               -
 -                                                                             -
 -------------------------------------------------------------------------------
 
 CP2K version 2024.3, the CP2K developers group (2024).
 CP2K is freely available from https://www.cp2k.org/ .
 
 T. D. Kuehne, M. Iannuzzi, M. Del Ben, V. V. Rybkin, P. Seewald, F. Stein, T. 
 Laino, R. Z. Khaliullin, O. Schuett, F. Schiffmann, D. Golze, J. Wilhelm, S. 
 Chulkov, M. H. Bani-Hashemian, V. Weber, U. Borstnik, M. Taillefumier, A. S. 
 Jakobovits, A. Lazzaro, H. Pabst, T. Mueller, R. Schade, M. Guidon, S. 
 Andermatt, N. Holmberg, G. K. Schenter, A. Hehn, A. Bussy, F. Belleflamme, G. 
 Tabacchi, A. Gloess, M. Lass, I. Bethune, C. J. Mundy, C. Plessl, M. Watkins, 
 J. VandeVondele, M. Krack, J. Hutter.
 J. Chem. Phys. 152, 194103 (2020).
 CP2K: An electronic structure and molecular dynamics software package - 
 Quickstep: Efficient and accurate electronic structure calculations.
 https://doi.org/10.1063/5.0007045

 L. Goerigk, A. Hansen, C. Bauer, S. Ehrlich, A. Najibi, S. Grimme.
 Phys. Chem. Chem. Phys. 19, 32184-32215 (2017).
 A look at the density functional theory zoo with the advanced GMTKN55 database 
 for general main group thermochemistry, kinetics and noncovalent interactions.
 https://doi.org/10.1039/C7CP04913G

 O. Schuett, P. Messmer, J. Hutter, J. VandeVondele.
 Electronic Structure Calculations on Graphics Processing Units, 173-190 (2016).
 GPU-Accelerated Sparse Matrix-Matrix Multiplication for Linear Scaling Density 
 Functional Theory.
 https://doi.org/10.1002/9781118670712.ch8

 A. Heinecke, G. Henry, M. Hutchinson, H. Pabst.
 Proceedings of Intl. Supercomputing Conference, 981-991 (2016).
 LIBXSMM: Accelerating Small Matrix Multiplications by Runtime Code Generation.
 https://doi.org/10.1109/SC.2016.83

 J. Hutter, M. Iannuzzi, F. Schiffmann, J. VandeVondele.
 WIREs Comput Mol Sci. 4, 15-25 (2014).
 CP2K: atomistic simulations of condensed matter systems.
 https://doi.org/10.1002/wcms.1159

 U. Borstnik, J. VandeVondele, V. Weber, J. Hutter.
 Parallel Comput. 40, 47-58 (2014).
 Sparse matrix multiplication: The distributed block-compressed sparse row 
 library.
 https://doi.org/10.1016/j.parco.2014.03.012

 A. Marek, V. Blum, R. Johanni, V. Havu, B. Lang, T. Auckenthaler, A. Heinecke, 
 H. Bungartz, H. Lederer.
 J. Phys. Condens. Matter 26, 213201 (2014).
 The ELPA library: scalable parallel eigenvalue solutions for electronic 
 structure theory and computational science.
 https://doi.org/10.1088/0953-8984/26/21/213201

 S. Grimme, S. Ehrlich, L. Goerigk.
 J. Comput. Chem. 32, 1456 (2011).
 Effect of the damping function in dispersion corrected density functional 
 theory.
 https://doi.org/10.1002/jcc.21759

 S. Grimme, J. Antony, S. Ehrlich, H. Krieg.
 J. Chem. Phys. 132, 154104 (2010).
 A consistent and accurate ab initio parametrization of density functional 
 dispersion correction (DFT-D) for the 94 elements H-Pu.
 https://doi.org/10.1063/1.3382344

 J. VandeVondele, J. Hutter.
 J. Chem. Phys. 127, 114105 (2007).
 Gaussian basis sets for accurate calculations on molecular systems in gas and 
 condensed phases.
 https://doi.org/10.1063/1.2770708

 J. VandeVondele, M. Krack, F. Mohamed, M. Parrinello, T. Chassaing, J. Hutter.
 Comput. Phys. Commun. 167, 103-128 (2005).
 QUICKSTEP: Fast and accurate density functional calculations using a mixed 
 Gaussian and plane waves approach.
 https://doi.org/10.1016/j.cpc.2004.12.014

 M. Krack.
 Theor. Chem. Acc. 114, 145-152 (2005).
 Pseudopotentials for H to Kr optimized for gradient-corrected 
 exchange-correlation functionals.
 https://doi.org/10.1007/s00214-005-0655-y

 M. Frigo, S. G. Johnson.
 Proc. IEEE 93, 216-231 (2005).
 The design and implementation of FFTW3.
 https://doi.org/10.1109/JPROC.2004.840301

 J. VandeVondele, J. Hutter.
 J. Chem. Phys. 118, 4365-4369 (2003).
 An efficient orbital transformation method for electronic structure 
 calculations.
 https://doi.org/10.1063/1.1543154

 C. Hartwigsen, S. Goedecker, J. Hutter.
 Phys. Rev. B 58, 3641-3662 (1998).
 Relativistic separable dual-space Gaussian pseudopotentials from H to Rn.
 https://doi.org/10.1103/PhysRevB.58.3641

 G. Lippert, J. Hutter, M. Parrinello.
 Mol. Phys. 92, 477-487 (1997).
 A hybrid Gaussian and plane wave density functional scheme.
 https://doi.org/10.1080/002689797170220

 S. Goedecker, M. Teter, J. Hutter.
 Phys. Rev. B 54, 1703-1710 (1996).
 Separable dual-space Gaussian pseudopotentials.
 https://doi.org/10.1103/PhysRevB.54.1703

 J. P. Perdew, K. Burke, M. Ernzerhof.
 Phys. Rev. Lett. 77, 3865-3868 (1996).
 Generalized gradient approximation made simple.
 https://doi.org/10.1103/PhysRevLett.77.3865


 -------------------------------------------------------------------------------
 -                                                                             -
 -                                T I M I N G                                  -
 -                                                                             -
 -------------------------------------------------------------------------------
 SUBROUTINE                       CALLS  ASD         SELF TIME        TOTAL TIME
                                MAXIMUM       AVERAGE  MAXIMUM  AVERAGE  MAXIMUM
 CP2K                                 1  1.0    0.018    0.029  694.013  694.014
 qs_forces                            1  2.0    0.003    0.004  693.785  693.786
 qs_energies                          1  3.0    0.001    0.001  692.495  692.496
 scf_post_calculation_gpw             1  4.0    0.001    0.001  690.166  690.173
 get_localization_info                1  5.0    0.000    0.000  689.237  689.240
 qs_loc_driver                        2  6.0    0.000    0.000  689.237  689.240
 optimize_loc_berry                   2  7.0    0.041    0.073  689.205  689.237
 jacobi_rot_para                      2  8.0  491.909  518.423  689.102  689.103
 mp_allgather_d23                878661  9.0  139.474  169.353  139.474  169.353
 mp_sendrecv_zm3                 878661  9.0   44.351   69.558   44.351   69.558
 -------------------------------------------------------------------------------

 The number of warnings for this run is : 0
 
 -------------------------------------------------------------------------------
  **** **** ******  **  PROGRAM ENDED AT                 2024-12-25 17:27:51.362
 ***** ** ***  *** **   PROGRAM RAN ON                                     cu076
 **    ****   ******    PROGRAM RAN BY                                     jxzhu
 ***** **    ** ** **   PROGRAM PROCESS ID                                356473
  **** **  *******  **  PROGRAM STOPPED IN /public/home/jxzhu/workspace/2024-dmf
                                           f-qeq/29.fermi_in_qeq/ot/wannier
