 DBCSR| CPU Multiplication driver                                           XSMM
 DBCSR| Multrec recursion limit                                              512
 DBCSR| Multiplication stack size                                           1000
 DBCSR| Maximum elements for images                                    UNLIMITED
 DBCSR| Multiplicative factor virtual images                                   1
 DBCSR| Use multiplication densification                                       T
 DBCSR| Multiplication size stacks                                             3
 DBCSR| Number of 3D layers                                               SINGLE
 DBCSR| Use MPI memory allocation                                              T
 DBCSR| Use RMA algorithm                                                      F
 DBCSR| Use Communication thread                                               T
 DBCSR| Communication thread load                                             87


  **** **** ******  **  PROGRAM STARTED AT               2022-12-12 23:27:07.233
 ***** ** ***  *** **   PROGRAM STARTED ON                               c53-030
 **    ****   ******    PROGRAM STARTED BY                                 jxzhu
 ***** **    ** ** **   PROGRAM PROCESS ID                                377963
  **** **  *******  **  PROGRAM STARTED IN /data/jxzhu/2022_leiden/03.e_polariza
                                           bility/03.smearing_temp/asymmetric/40
                                           0

 CP2K| version string:                                          CP2K version 7.1
 CP2K| source code revision number:                                  git:e635599
 CP2K| cp2kflags: libint fftw3 libxc elpa parallel mpi3 scalapack xsmm spglib
 CP2K| is freely available from                            https://www.cp2k.org/
 CP2K| Program compiled at                           Mon Mar 8 20:53:19 CST 2021
 CP2K| Program compiled on                                                 mgt01
 CP2K| Program compiled for                                                local
 CP2K| Data directory path                        /data/share/apps/cp2k/7.1/data
 CP2K| Input file name                                                 input.inp

 GLOBAL| Force Environment number                                              1
 GLOBAL| Basis set file name                      /data/jxzhu/basis/BASIS_MOLOPT
 GLOBAL| Potential file name                    /data/jxzhu/basis/GTH_POTENTIALS
 GLOBAL| MM Potential file name                                     MM_POTENTIAL
 GLOBAL| Coordinate file name                                          coord.xyz
 GLOBAL| Method name                                                        CP2K
 GLOBAL| Project name                                                       cp2k
 GLOBAL| Preferred FFT library                                             FFTW3
 GLOBAL| Preferred diagonalization lib.                                     ELPA
 GLOBAL| Run type                                                   ENERGY_FORCE
 GLOBAL| All-to-all communication in single precision                          F
 GLOBAL| FFTs using library dependent lengths                                  T
 GLOBAL| Global print level                                               MEDIUM
 GLOBAL| MPI I/O enabled                                                       T
 GLOBAL| Total number of message passing processes                            64
 GLOBAL| Number of threads for this process                                    1
 GLOBAL| This output is from process                                           0
 GLOBAL| CPU model name                Intel(R) Xeon(R) Gold 6226R CPU @ 2.90GHz
 GLOBAL| CPUID                                                              1003
 GLOBAL| Compiled for CPUID                                                 1002
 HINT in environment.F:814 The compiler target flags (x86_avx2) used to build
   this binary cannot exploit all extensions of this CPU model (x86_avx512).
   Consider compiler target flags as part of FCFLAGS and CFLAGS (ARCH file).

 MEMORY| system memory details [Kb]
 MEMORY|                        rank 0           min           max       average
 MEMORY| MemTotal            196481368     196481368     196481368     196481368
 MEMORY| MemFree             182084960     182084960     182884496     182484728
 MEMORY| Buffers                  2128          2128          2128          2128
 MEMORY| Cached                4151560       4151560       4356536       4254048
 MEMORY| Slab                   488424        479944        488424        484184
 MEMORY| SReclaimable           223992        223416        223992        223704
 MEMORY| MemLikelyFree       186462640     186462640     187466576     186964608


 *** Fundamental physical constants (SI units) ***

 *** Literature: B. J. Mohr and B. N. Taylor,
 ***             CODATA recommended values of the fundamental physical
 ***             constants: 2006, Web Version 5.1
 ***             http://physics.nist.gov/constants

 Speed of light in vacuum [m/s]                             2.99792458000000E+08
 Magnetic constant or permeability of vacuum [N/A**2]       1.25663706143592E-06
 Electric constant or permittivity of vacuum [F/m]          8.85418781762039E-12
 Planck constant (h) [J*s]                                  6.62606896000000E-34
 Planck constant (h-bar) [J*s]                              1.05457162825177E-34
 Elementary charge [C]                                      1.60217648700000E-19
 Electron mass [kg]                                         9.10938215000000E-31
 Electron g factor [ ]                                     -2.00231930436220E+00
 Proton mass [kg]                                           1.67262163700000E-27
 Fine-structure constant                                    7.29735253760000E-03
 Rydberg constant [1/m]                                     1.09737315685270E+07
 Avogadro constant [1/mol]                                  6.02214179000000E+23
 Boltzmann constant [J/K]                                   1.38065040000000E-23
 Atomic mass unit [kg]                                      1.66053878200000E-27
 Bohr radius [m]                                            5.29177208590000E-11

 *** Conversion factors ***

 [u] -> [a.u.]                                              1.82288848426455E+03
 [Angstrom] -> [Bohr] = [a.u.]                              1.88972613288564E+00
 [a.u.] = [Bohr] -> [Angstrom]                              5.29177208590000E-01
 [a.u.] -> [s]                                              2.41888432650478E-17
 [a.u.] -> [fs]                                             2.41888432650478E-02
 [a.u.] -> [J]                                              4.35974393937059E-18
 [a.u.] -> [N]                                              8.23872205491840E-08
 [a.u.] -> [K]                                              3.15774647902944E+05
 [a.u.] -> [kJ/mol]                                         2.62549961709828E+03
 [a.u.] -> [kcal/mol]                                       6.27509468713739E+02
 [a.u.] -> [Pa]                                             2.94210107994716E+13
 [a.u.] -> [bar]                                            2.94210107994716E+08
 [a.u.] -> [atm]                                            2.90362800883016E+08
 [a.u.] -> [eV]                                             2.72113838565563E+01
 [a.u.] -> [Hz]                                             6.57968392072181E+15
 [a.u.] -> [1/cm] (wave numbers)                            2.19474631370540E+05
 [a.u./Bohr**2] -> [1/cm]                                   5.14048714338585E+03


 CELL_TOP| Volume [angstrom^3]:                                         7588.351
 CELL_TOP| Vector a [angstrom    11.246     0.000     0.000    |a| =      11.246
 CELL_TOP| Vector b [angstrom     0.000    11.246     0.000    |b| =      11.246
 CELL_TOP| Vector c [angstrom     0.000     0.000    60.000    |c| =      60.000
 CELL_TOP| Angle (b,c), alpha [degree]:                                   90.000
 CELL_TOP| Angle (a,c), beta  [degree]:                                   90.000
 CELL_TOP| Angle (a,b), gamma [degree]:                                   90.000
 CELL_TOP| Numerically orthorhombic:                                         YES

 GENERATE|  Preliminary Number of Bonds generated:                             0
 GENERATE|  Achieved consistency in connectivity generation.

 CELL| Volume [angstrom^3]:                                             7588.351
 CELL| Vector a [angstrom]:      11.246     0.000     0.000    |a| =      11.246
 CELL| Vector b [angstrom]:       0.000    11.246     0.000    |b| =      11.246
 CELL| Vector c [angstrom]:       0.000     0.000    60.000    |c| =      60.000
 CELL| Angle (b,c), alpha [degree]:                                       90.000
 CELL| Angle (a,c), beta  [degree]:                                       90.000
 CELL| Angle (a,b), gamma [degree]:                                       90.000
 CELL| Numerically orthorhombic:                                             YES

 CELL_REF| Volume [angstrom^3]:                                         7588.351
 CELL_REF| Vector a [angstrom    11.246     0.000     0.000    |a| =      11.246
 CELL_REF| Vector b [angstrom     0.000    11.246     0.000    |b| =      11.246
 CELL_REF| Vector c [angstrom     0.000     0.000    60.000    |c| =      60.000
 CELL_REF| Angle (b,c), alpha [degree]:                                   90.000
 CELL_REF| Angle (a,c), beta  [degree]:                                   90.000
 CELL_REF| Angle (a,b), gamma [degree]:                                   90.000
 CELL_REF| Numerically orthorhombic:                                         YES

 *******************************************************************************
 *******************************************************************************
 **                                                                           **
 **     #####                         ##              ##                      **
 **    ##   ##            ##          ##              ##                      **
 **   ##     ##                       ##            ######                    **
 **   ##     ##  ##   ##  ##   #####  ##  ##   ####   ##    #####    #####    **
 **   ##     ##  ##   ##  ##  ##      ## ##   ##      ##   ##   ##  ##   ##   **
 **   ##  ## ##  ##   ##  ##  ##      ####     ###    ##   ######   ######    **
 **    ##  ###   ##   ##  ##  ##      ## ##      ##   ##   ##       ##        **
 **     #######   #####   ##   #####  ##  ##  ####    ##    #####   ##        **
 **           ##                                                    ##        **
 **                                                                           **
 **                                                ... make the atoms dance   **
 **                                                                           **
 **            Copyright (C) by CP2K developers group (2000 - 2019)           **
 **                                                                           **
 *******************************************************************************

 DFT| Spin restricted Kohn-Sham (RKS) calculation                            RKS
 DFT| Multiplicity                                                             1
 DFT| Number of spin states                                                    1
 DFT| Charge                                                                   0
 DFT| Self-interaction correction (SIC)                                       NO
 DFT| Cutoffs: density                                              1.000000E-10
 DFT|          gradient                                             1.000000E-10
 DFT|          tau                                                  1.000000E-10
 DFT|          cutoff_smoothing_range                               0.000000E+00
 DFT| XC density smoothing                                                  NONE
 DFT| XC derivatives                                                          PW
 FUNCTIONAL| ROUTINE=NEW
 FUNCTIONAL| PBE:
 FUNCTIONAL| J.P.Perdew, K.Burke, M.Ernzerhof, Phys. Rev. Letter, vol. 77, n 18,
 FUNCTIONAL|  pp. 3865-3868, (1996){spin unpolarized}
 vdW POTENTIAL|                                                   Pair Potential
 vdW POTENTIAL|          DFT-D3 (Version 3.1)
 vdW POTENTIAL|          Potential Form: S. Grimme et al, JCP 132: 154104 (2010)
 vdW POTENTIAL|          Zero Damping
 vdW POTENTIAL|          Cutoff Radius [Bohr]:                             20.00
 vdW POTENTIAL|          s6 Scaling Factor:                               1.0000
 vdW POTENTIAL|          sr6 Scaling Factor:                              1.2170
 vdW POTENTIAL|          s8 Scaling Factor:                               0.7220
 vdW POTENTIAL|          Cutoff for CN calculation:                   0.1000E-05

 QS| Method:                                                                 GPW
 QS| Density plane wave grid type                        NON-SPHERICAL FULLSPACE
 QS| Number of grid levels:                                                    4
 QS| Density cutoff [a.u.]:                                                200.0
 QS| Multi grid cutoff [a.u.]: 1) grid level                               200.0
 QS|                           2) grid level                                66.7
 QS|                           3) grid level                                22.2
 QS|                           4) grid level                                 7.4
 QS| Grid level progression factor:                                          3.0
 QS| Relative density cutoff [a.u.]:                                        20.0
 QS| Consistent realspace mapping and integration
 QS| Interaction thresholds: eps_pgf_orb:                                3.2E-07
 QS|                         eps_filter_matrix:                          0.0E+00
 QS|                         eps_core_charge:                            1.0E-15
 QS|                         eps_rho_gspace:                             1.0E-13
 QS|                         eps_rho_rspace:                             1.0E-13
 QS|                         eps_gvg_rspace:                             3.2E-07
 QS|                         eps_ppl:                                    1.0E-02
 QS|                         eps_ppnl:                                   3.2E-09


 ATOMIC KIND INFORMATION

  1. Atomic kind: O                                     Number of atoms:      62

     Orbital Basis Set                                        DZVP-MOLOPT-SR-GTH

       Number of orbital shell sets:                                           1
       Number of orbital shells:                                               5
       Number of primitive Cartesian functions:                                5
       Number of Cartesian basis functions:                                   14
       Number of spherical basis functions:                                   13
       Norm type:                                                              2

       Normalised Cartesian orbitals:

                        Set   Shell   Orbital            Exponent    Coefficient

                          1       1    2s               10.389228       0.396646
                                                         3.849621       0.208811
                                                         1.388401      -0.301641
                                                         0.496955      -0.274061
                                                         0.162492      -0.033677

                          1       2    3s               10.389228       0.303673
                                                         3.849621       0.240943
                                                         1.388401      -0.313066
                                                         0.496955      -0.043055
                                                         0.162492       0.213991

                          1       3    3px              10.389228      -1.530415
                                                         3.849621      -1.371928
                                                         1.388401      -0.761951
                                                         0.496955      -0.253695
                                                         0.162492      -0.035541
                          1       3    3py              10.389228      -1.530415
                                                         3.849621      -1.371928
                                                         1.388401      -0.761951
                                                         0.496955      -0.253695
                                                         0.162492      -0.035541
                          1       3    3pz              10.389228      -1.530415
                                                         3.849621      -1.371928
                                                         1.388401      -0.761951
                                                         0.496955      -0.253695
                                                         0.162492      -0.035541

                          1       4    4px              10.389228      -0.565392
                                                         3.849621      -0.038231
                                                         1.388401      -0.382373
                                                         0.496955       0.179070
                                                         0.162492       0.122714
                          1       4    4py              10.389228      -0.565392
                                                         3.849621      -0.038231
                                                         1.388401      -0.382373
                                                         0.496955       0.179070
                                                         0.162492       0.122714
                          1       4    4pz              10.389228      -0.565392
                                                         3.849621      -0.038231
                                                         1.388401      -0.382373
                                                         0.496955       0.179070
                                                         0.162492       0.122714

                          1       5    4dx2             10.389228       1.867377
                                                         3.849621       0.670994
                                                         1.388401       1.353441
                                                         0.496955       0.273538
                                                         0.162492       0.006620
                          1       5    4dxy             10.389228       3.234392
                                                         3.849621       1.162195
                                                         1.388401       2.344229
                                                         0.496955       0.473781
                                                         0.162492       0.011466
                          1       5    4dxz             10.389228       3.234392
                                                         3.849621       1.162195
                                                         1.388401       2.344229
                                                         0.496955       0.473781
                                                         0.162492       0.011466
                          1       5    4dy2             10.389228       1.867377
                                                         3.849621       0.670994
                                                         1.388401       1.353441
                                                         0.496955       0.273538
                                                         0.162492       0.006620
                          1       5    4dyz             10.389228       3.234392
                                                         3.849621       1.162195
                                                         1.388401       2.344229
                                                         0.496955       0.473781
                                                         0.162492       0.011466
                          1       5    4dz2             10.389228       1.867377
                                                         3.849621       0.670994
                                                         1.388401       1.353441
                                                         0.496955       0.273538
                                                         0.162492       0.006620

     GTH Potential information for                                    GTH-PBE-q6

       Description:                       Goedecker-Teter-Hutter pseudopotential
                                           Goedecker et al., PRB 54, 1703 (1996)
                                          Hartwigsen et al., PRB 58, 3641 (1998)
                                                      Krack, TCA 114, 145 (2005)

       Gaussian exponent of the core charge distribution:               8.360253
       Electronic configuration (s p d ...):                               2   4

       Parameters of the local part of the GTH pseudopotential:

                          rloc        C1          C2          C3          C4
                        0.244554  -16.667215    2.487311

       Parameters of the non-local part of the GTH pseudopotential:

                   l      r(l)      h(i,j,l)

                   0    0.220956   18.337458
                   1    0.211332

  2. Atomic kind: H                                     Number of atoms:     124

     Orbital Basis Set                                        DZVP-MOLOPT-SR-GTH

       Number of orbital shell sets:                                           1
       Number of orbital shells:                                               3
       Number of primitive Cartesian functions:                                5
       Number of Cartesian basis functions:                                    5
       Number of spherical basis functions:                                    5
       Norm type:                                                              2

       Normalised Cartesian orbitals:

                        Set   Shell   Orbital            Exponent    Coefficient

                          1       1    2s               10.068468      -0.133023
                                                         2.680223      -0.177618
                                                         0.791502      -0.258419
                                                         0.239116      -0.107525
                                                         0.082193      -0.014019

                          1       2    3s               10.068468       0.344673
                                                         2.680223       1.819821
                                                         0.791502      -0.999069
                                                         0.239116       0.017430
                                                         0.082193       0.082660

                          1       3    3px              10.068468       0.155326
                                                         2.680223       0.367157
                                                         0.791502       0.311480
                                                         0.239116       0.080105
                                                         0.082193       0.033440
                          1       3    3py              10.068468       0.155326
                                                         2.680223       0.367157
                                                         0.791502       0.311480
                                                         0.239116       0.080105
                                                         0.082193       0.033440
                          1       3    3pz              10.068468       0.155326
                                                         2.680223       0.367157
                                                         0.791502       0.311480
                                                         0.239116       0.080105
                                                         0.082193       0.033440

     GTH Potential information for                                    GTH-PBE-q1

       Description:                       Goedecker-Teter-Hutter pseudopotential
                                           Goedecker et al., PRB 54, 1703 (1996)
                                          Hartwigsen et al., PRB 58, 3641 (1998)
                                                      Krack, TCA 114, 145 (2005)

       Gaussian exponent of the core charge distribution:              12.500000
       Electronic configuration (s p d ...):                                   1

       Parameters of the local part of the GTH pseudopotential:

                          rloc        C1          C2          C3          C4
                        0.200000   -4.178900    0.724463

  3. Atomic kind: Pt                                    Number of atoms:      96

     Orbital Basis Set                      DZVP-A5-Q10-323-MOL-T1-DERIVED_SET-1

       Number of orbital shell sets:                                           1
       Number of orbital shells:                                               6
       Number of primitive Cartesian functions:                                5
       Number of Cartesian basis functions:                                   23
       Number of spherical basis functions:                                   20
       Norm type:                                                              2

       Normalised Cartesian orbitals:

                        Set   Shell   Orbital            Exponent    Coefficient

                          1       1    2s                2.521825       0.177473
                                                         1.453920      -0.063399
                                                         0.614053      -0.407089
                                                         0.232656       0.262254
                                                         0.074788       0.047371

                          1       2    3s                2.521825      -0.049056
                                                         1.453920       0.044904
                                                         0.614053      -0.009756
                                                         0.232656      -0.144709
                                                         0.074788       0.144085

                          1       3    3px               2.521825      -0.317572
                                                         1.453920       0.534826
                                                         0.614053      -0.489458
                                                         0.232656       0.245631
                                                         0.074788       0.018221
                          1       3    3py               2.521825      -0.317572
                                                         1.453920       0.534826
                                                         0.614053      -0.489458
                                                         0.232656       0.245631
                                                         0.074788       0.018221
                          1       3    3pz               2.521825      -0.317572
                                                         1.453920       0.534826
                                                         0.614053      -0.489458
                                                         0.232656       0.245631
                                                         0.074788       0.018221

                          1       4    4dx2              2.521825       3.008522
                                                         1.453920      -1.224251
                                                         0.614053       0.225691
                                                         0.232656       0.125144
                                                         0.074788      -0.015348
                          1       4    4dxy              2.521825       5.210912
                                                         1.453920      -2.120465
                                                         0.614053       0.390909
                                                         0.232656       0.216756
                                                         0.074788      -0.026584
                          1       4    4dxz              2.521825       5.210912
                                                         1.453920      -2.120465
                                                         0.614053       0.390909
                                                         0.232656       0.216756
                                                         0.074788      -0.026584
                          1       4    4dy2              2.521825       3.008522
                                                         1.453920      -1.224251
                                                         0.614053       0.225691
                                                         0.232656       0.125144
                                                         0.074788      -0.015348
                          1       4    4dyz              2.521825       5.210912
                                                         1.453920      -2.120465
                                                         0.614053       0.390909
                                                         0.232656       0.216756
                                                         0.074788      -0.026584
                          1       4    4dz2              2.521825       3.008522
                                                         1.453920      -1.224251
                                                         0.614053       0.225691
                                                         0.232656       0.125144
                                                         0.074788      -0.015348

                          1       5    5dx2              2.521825       0.698026
                                                         1.453920      -1.511486
                                                         0.614053      -0.335394
                                                         0.232656      -0.025564
                                                         0.074788      -0.002699
                          1       5    5dxy              2.521825       1.209017
                                                         1.453920      -2.617970
                                                         0.614053      -0.580920
                                                         0.232656      -0.044277
                                                         0.074788      -0.004674
                          1       5    5dxz              2.521825       1.209017
                                                         1.453920      -2.617970
                                                         0.614053      -0.580920
                                                         0.232656      -0.044277
                                                         0.074788      -0.004674
                          1       5    5dy2              2.521825       0.698026
                                                         1.453920      -1.511486
                                                         0.614053      -0.335394
                                                         0.232656      -0.025564
                                                         0.074788      -0.002699
                          1       5    5dyz              2.521825       1.209017
                                                         1.453920      -2.617970
                                                         0.614053      -0.580920
                                                         0.232656      -0.044277
                                                         0.074788      -0.004674
                          1       5    5dz2              2.521825       0.698026
                                                         1.453920      -1.511486
                                                         0.614053      -0.335394
                                                         0.232656      -0.025564
                                                         0.074788      -0.002699

                          1       6    6dx2              2.521825       0.831079
                                                         1.453920      -0.709226
                                                         0.614053      -0.137351
                                                         0.232656       0.068642
                                                         0.074788       0.011745
                          1       6    6dxy              2.521825       1.439472
                                                         1.453920      -1.228415
                                                         0.614053      -0.237899
                                                         0.232656       0.118891
                                                         0.074788       0.020343
                          1       6    6dxz              2.521825       1.439472
                                                         1.453920      -1.228415
                                                         0.614053      -0.237899
                                                         0.232656       0.118891
                                                         0.074788       0.020343
                          1       6    6dy2              2.521825       0.831079
                                                         1.453920      -0.709226
                                                         0.614053      -0.137351
                                                         0.232656       0.068642
                                                         0.074788       0.011745
                          1       6    6dyz              2.521825       1.439472
                                                         1.453920      -1.228415
                                                         0.614053      -0.237899
                                                         0.232656       0.118891
                                                         0.074788       0.020343
                          1       6    6dz2              2.521825       0.831079
                                                         1.453920      -0.709226
                                                         0.614053      -0.137351
                                                         0.232656       0.068642
                                                         0.074788       0.011745

     GTH Potential information for                                   GTH-PBE-q10

       Description:                       Goedecker-Teter-Hutter pseudopotential
                                           Goedecker et al., PRB 54, 1703 (1996)
                                          Hartwigsen et al., PRB 58, 3641 (1998)
                                                      Krack, TCA 114, 145 (2005)

       Gaussian exponent of the core charge distribution:               1.317676
       Electronic configuration (s p d ...):                           1   0   9

       Parameters of the local part of the GTH pseudopotential:

                          rloc        C1          C2          C3          C4
                        0.616000   11.313635

       Parameters of the non-local part of the GTH pseudopotential:

                   l      r(l)      h(i,j,l)

                   0    0.550904    4.733491   -1.784594
                                   -1.784594    2.303901
                   1    0.674138    2.534798   -1.778066
                                   -1.778066    2.103836
                   2    0.457392   -7.264011    2.558665
                                    2.558665   -2.901253


 MOLECULE KIND INFORMATION


 All atoms are their own molecule, skipping detailed information


 TOTAL NUMBERS AND MAXIMUM NUMBERS

  Total number of            - Atomic kinds:                                   3
                             - Atoms:                                        282
                             - Shell sets:                                   282
                             - Shells:                                      1258
                             - Primitive Cartesian functions:               1410
                             - Cartesian basis functions:                   3696
                             - Spherical basis functions:                   3346

  Maximum angular momentum of- Orbital basis functions:                        2
                             - Local part of the GTH pseudopotential:          2
                             - Non-local part of the GTH pseudopotential:      4


 MODULE QUICKSTEP:  ATOMIC COORDINATES IN angstrom

  Atom  Kind  Element       X           Y           Z          Z(eff)       Mass

       1     1 O    8    8.103050    9.474460   39.981300      6.00      15.9994
       2     2 H    1    7.362760   10.150200   39.936700      1.00       1.0079
       3     2 H    1    8.582870    9.727470   40.762800      1.00       1.0079
       4     1 O    8    3.966490   10.486300   27.757430      6.00      15.9994
       5     2 H    1    3.431840   10.609300   26.889590      1.00       1.0079
       6     2 H    1    4.574910    9.747040   27.602330      1.00       1.0079
       7     1 O    8    7.782580    8.798140   32.988200      6.00      15.9994
       8     2 H    1    7.926890    9.589070   33.588100      1.00       1.0079
       9     2 H    1    8.257390    9.185520   32.162900      1.00       1.0079
      10     1 O    8    4.788760   11.235849   34.612300      6.00      15.9994
      11     2 H    1    3.847450    0.178762   34.992300      1.00       1.0079
      12     2 H    1    4.505880   10.545300   33.953900      1.00       1.0079
      13     1 O    8    5.826370   11.007200   39.253600      6.00      15.9994
      14     2 H    1    4.919800   11.130600   39.541700      1.00       1.0079
      15     2 H    1    5.845630   10.696800   38.315300      1.00       1.0079
      16     1 O    8   10.092200   10.210400   38.197600      6.00      15.9994
      17     2 H    1   10.258700    9.681220   37.417500      1.00       1.0079
      18     2 H    1    9.380430    9.789100   38.816400      1.00       1.0079
      19     1 O    8    5.643570    8.449830   30.731200      6.00      15.9994
      20     2 H    1    4.904910    8.873780   31.221000      1.00       1.0079
      21     2 H    1    6.277040    8.561990   31.479500      1.00       1.0079
      22     1 O    8    0.061901    5.794450   27.609500      6.00      15.9994
      23     2 H    1   10.466100    5.726210   28.080960      1.00       1.0079
      24     2 H    1    0.701240    5.157300   27.976600      1.00       1.0079
      25     1 O    8    3.897410    6.810470   40.678000      6.00      15.9994
      26     2 H    1    3.362460    6.185870   41.230700      1.00       1.0079
      27     2 H    1    4.733490    6.354650   40.764100      1.00       1.0079
      28     1 O    8    7.570700    5.526940   37.882800      6.00      15.9994
      29     2 H    1    8.534880    5.576430   37.576500      1.00       1.0079
      30     2 H    1    7.552560    5.840980   38.839900      1.00       1.0079
      31     1 O    8    3.650800    6.840430   35.801400      6.00      15.9994
      32     2 H    1    4.544920    7.147050   36.065900      1.00       1.0079
      33     2 H    1    3.666400    5.841220   35.507100      1.00       1.0079
      34     1 O    8    7.265610    6.885200   40.457600      6.00      15.9994
      35     2 H    1    6.982480    6.941550   41.405900      1.00       1.0079
      36     2 H    1    7.403840    7.841900   40.223600      1.00       1.0079
      37     1 O    8    0.409116    3.214580   39.724500      6.00      15.9994
      38     2 H    1   11.150600    2.971100   40.556200      1.00       1.0079
      39     2 H    1    1.380310    2.968080   39.967600      1.00       1.0079
      40     1 O    8    5.656970    4.741490   33.001800      6.00      15.9994
      41     2 H    1    6.160080    3.883010   32.860300      1.00       1.0079
      42     2 H    1    6.314040    5.479580   33.380700      1.00       1.0079
      43     1 O    8    9.590320    1.711380   38.021100      6.00      15.9994
      44     2 H    1    9.819570    0.733592   38.153100      1.00       1.0079
      45     2 H    1   10.270700    2.179380   38.503100      1.00       1.0079
      46     1 O    8    5.415740    5.815180   30.490400      6.00      15.9994
      47     2 H    1    5.685420    5.500970   31.385500      1.00       1.0079
      48     2 H    1    5.602180    6.862430   30.587800      1.00       1.0079
      49     1 O    8    4.818790    1.785600   27.977690      6.00      15.9994
      50     2 H    1    4.823840    2.290830   27.145600      1.00       1.0079
      51     2 H    1    4.557550    0.803512   27.732650      1.00       1.0079
      52     1 O    8    6.361620    4.074290   36.033100      6.00      15.9994
      53     2 H    1    6.785880    4.434100   36.839600      1.00       1.0079
      54     2 H    1    6.858230    3.209220   35.805000      1.00       1.0079
      55     1 O    8    2.272370    7.747500   38.594900      6.00      15.9994
      56     2 H    1    1.497230    7.122690   38.657200      1.00       1.0079
      57     2 H    1    2.903680    7.365180   37.935200      1.00       1.0079
      58     1 O    8    6.829040    4.466820   28.346940      6.00      15.9994
      59     2 H    1    6.284910    4.896430   29.031100      1.00       1.0079
      60     2 H    1    6.255790    4.582320   27.523900      1.00       1.0079
      61     1 O    8    8.151710    8.820130   28.163580      6.00      15.9994
      62     2 H    1    8.419010    7.882240   28.374490      1.00       1.0079
      63     2 H    1    8.769640    9.214630   27.535100      1.00       1.0079
      64     1 O    8    3.696420    9.758900   32.336800      6.00      15.9994
      65     2 H    1    3.327300   10.556100   31.963700      1.00       1.0079
      66     2 H    1    3.025550    9.220130   32.819500      1.00       1.0079
      67     1 O    8   11.240475    8.470720   28.014280      6.00      15.9994
      68     2 H    1   11.197970    7.477660   27.824890      1.00       1.0079
      69     2 H    1    0.856311    8.550590   28.554080      1.00       1.0079
      70     1 O    8    7.443420    6.436420   34.086600      6.00      15.9994
      71     2 H    1    7.864010    7.243590   33.652300      1.00       1.0079
      72     2 H    1    8.246330    5.888370   34.310700      1.00       1.0079
      73     1 O    8   10.866100   10.815300   27.398240      6.00      15.9994
      74     2 H    1    0.242198    0.140133   27.963420      1.00       1.0079
      75     2 H    1   11.051500    9.833520   27.629210      1.00       1.0079
      76     1 O    8    6.579240    2.101370   32.830700      6.00      15.9994
      77     2 H    1    6.042530    1.633240   33.553800      1.00       1.0079
      78     2 H    1    6.143750    1.970840   31.905300      1.00       1.0079
      79     1 O    8    9.944580    6.349910   36.439800      6.00      15.9994
      80     2 H    1   10.306000    5.673110   35.771900      1.00       1.0079
      81     2 H    1   10.517400    6.261490   37.241800      1.00       1.0079
      82     1 O    8    2.867730    5.067500   30.746300      6.00      15.9994
      83     2 H    1    2.647800    4.711190   29.878280      1.00       1.0079
      84     2 H    1    3.783280    5.290500   30.646700      1.00       1.0079
      85     1 O    8    8.991510    1.407970   32.051700      6.00      15.9994
      86     2 H    1    8.097730    1.652280   32.308100      1.00       1.0079
      87     2 H    1    9.460000    2.182350   31.602700      1.00       1.0079
      88     1 O    8    8.919230    5.921830   31.256700      6.00      15.9994
      89     2 H    1    9.213620    4.964180   31.206700      1.00       1.0079
      90     2 H    1    9.643140    6.313090   31.735900      1.00       1.0079
      91     1 O    8    6.342860   10.298800   36.714900      6.00      15.9994
      92     2 H    1    6.500820    9.313520   36.700100      1.00       1.0079
      93     2 H    1    5.732490   10.560200   35.979100      1.00       1.0079
      94     1 O    8    7.773710    0.715791   28.229600      6.00      15.9994
      95     2 H    1    6.991470    1.117870   27.830450      1.00       1.0079
      96     2 H    1    8.222960    0.443500   27.326540      1.00       1.0079
      97     1 O    8    2.792200    0.509862   30.743400      6.00      15.9994
      98     2 H    1    3.713000    0.839416   30.527400      1.00       1.0079
      99     2 H    1    2.310390    1.292600   31.199700      1.00       1.0079
     100     1 O    8    8.334310    2.125620   35.331800      6.00      15.9994
     101     2 H    1    8.307750    1.274780   34.900400      1.00       1.0079
     102     2 H    1    8.621260    2.007500   36.259800      1.00       1.0079
     103     1 O    8    0.586842    6.732440   32.291900      6.00      15.9994
     104     2 H    1    1.257120    6.161410   31.948800      1.00       1.0079
     105     2 H    1    0.567768    7.567280   31.765000      1.00       1.0079
     106     1 O    8    8.361320   10.699800   34.840000      6.00      15.9994
     107     2 H    1    7.684070   10.613700   35.626800      1.00       1.0079
     108     2 H    1    9.155810   10.249500   35.228300      1.00       1.0079
     109     1 O    8    2.123850    0.163367   35.447000      6.00      15.9994
     110     2 H    1    1.396910   11.003300   34.885300      1.00       1.0079
     111     2 H    1    2.011690   11.083400   36.369400      1.00       1.0079
     112     1 O    8    1.652420    2.775410   31.713400      6.00      15.9994
     113     2 H    1    1.639920    2.748670   32.735900      1.00       1.0079
     114     2 H    1    2.281780    3.519010   31.531000      1.00       1.0079
     115     1 O    8    7.196470    1.903230   39.652500      6.00      15.9994
     116     2 H    1    6.597650    1.199390   39.472900      1.00       1.0079
     117     2 H    1    7.960930    1.667700   39.051500      1.00       1.0079
     118     1 O    8    3.912320    4.232860   34.947500      6.00      15.9994
     119     2 H    1    4.400840    4.535350   34.145300      1.00       1.0079
     120     2 H    1    4.659080    4.052150   35.580600      1.00       1.0079
     121     1 O    8    5.728910    8.580720   27.461540      6.00      15.9994
     122     2 H    1    5.281060    7.775730   27.826240      1.00       1.0079
     123     2 H    1    6.743660    8.642140   27.756230      1.00       1.0079
     124     1 O    8    5.679760    0.982176   30.439600      6.00      15.9994
     125     2 H    1    6.169480    0.170709   30.194300      1.00       1.0079
     126     2 H    1    5.576770    1.401650   29.587230      1.00       1.0079
     127     1 O    8    2.209230    8.791960   29.187390      6.00      15.9994
     128     2 H    1    2.807650    7.982480   29.033660      1.00       1.0079
     129     2 H    1    2.781500    9.557180   28.868070      1.00       1.0079
     130     1 O    8    3.800400    6.853150   28.274040      6.00      15.9994
     131     2 H    1    3.426430    6.549170   27.375810      1.00       1.0079
     132     2 H    1    4.335100    6.138420   28.675040      1.00       1.0079
     133     1 O    8    5.121040    3.673130   38.993300      6.00      15.9994
     134     2 H    1    5.960000    3.262720   39.350800      1.00       1.0079
     135     2 H    1    5.254960    3.852530   37.988700      1.00       1.0079
     136     1 O    8    9.032300   10.206400   30.924100      6.00      15.9994
     137     2 H    1    9.118910   11.158500   31.392000      1.00       1.0079
     138     2 H    1    8.660290   10.472800   30.069700      1.00       1.0079
     139     1 O    8    3.095820    2.787420   40.364900      6.00      15.9994
     140     2 H    1    3.769490    2.944870   39.634200      1.00       1.0079
     141     2 H    1    3.233060    3.416260   41.126700      1.00       1.0079
     142     1 O    8    0.283766    9.178750   31.365200      6.00      15.9994
     143     2 H    1   10.697500    9.463510   30.930500      1.00       1.0079
     144     2 H    1    1.043910    9.374260   30.759200      1.00       1.0079
     145     1 O    8    1.622530    8.285320   34.379500      6.00      15.9994
     146     2 H    1    2.394910    7.815490   34.810300      1.00       1.0079
     147     2 H    1    1.334910    7.631370   33.715900      1.00       1.0079
     148     1 O    8    1.438760    1.451670   28.417910      6.00      15.9994
     149     2 H    1    1.966060    1.238930   29.238280      1.00       1.0079
     150     2 H    1    1.893600    1.306590   27.528640      1.00       1.0079
     151     1 O    8    0.531405    0.219403   33.202800      6.00      15.9994
     152     2 H    1    0.533497   10.589600   32.658900      1.00       1.0079
     153     2 H    1   10.905900    0.592307   33.181000      1.00       1.0079
     154     1 O    8    9.611020    2.416380   28.489960      6.00      15.9994
     155     2 H    1   10.367000    2.346220   27.930000      1.00       1.0079
     156     2 H    1    8.975750    1.705500   28.299860      1.00       1.0079
     157     1 O    8   10.288100    3.234030   30.957500      6.00      15.9994
     158     2 H    1   11.208761    2.918430   31.163700      1.00       1.0079
     159     2 H    1   10.055400    2.940880   30.037500      1.00       1.0079
     160     1 O    8    3.502630    0.202077   40.056200      6.00      15.9994
     161     2 H    1    3.458440    1.083490   40.465300      1.00       1.0079
     162     2 H    1    2.698330    0.129100   39.387400      1.00       1.0079
     163     1 O    8   10.415200    8.903200   35.786700      6.00      15.9994
     164     2 H    1   10.084200    7.991850   35.919800      1.00       1.0079
     165     2 H    1    0.036300    8.740190   35.183500      1.00       1.0079
     166     1 O    8    8.891810    6.239080   28.678770      6.00      15.9994
     167     2 H    1    8.181090    5.524440   28.386460      1.00       1.0079
     168     2 H    1    8.973620    6.077890   29.680060      1.00       1.0079
     169     1 O    8   11.200520    6.087890   38.788100      6.00      15.9994
     170     2 H    1    0.244801    5.140740   38.793100      1.00       1.0079
     171     2 H    1   10.872000    6.165250   39.752600      1.00       1.0079
     172     1 O    8    1.349670    2.795110   34.315100      6.00      15.9994
     173     2 H    1    1.354960    1.899480   34.787600      1.00       1.0079
     174     2 H    1    2.119340    3.250070   34.733500      1.00       1.0079
     175     1 O    8    6.297690    7.569410   36.347100      6.00      15.9994
     176     2 H    1    6.845920    7.019740   37.025300      1.00       1.0079
     177     2 H    1    6.727050    7.250470   35.469400      1.00       1.0079
     178     1 O    8    1.678250   10.409100   38.219000      6.00      15.9994
     179     2 H    1    1.762170    9.410690   38.177100      1.00       1.0079
     180     2 H    1    0.721725   10.542500   38.195900      1.00       1.0079
     181     1 O    8    9.883210    4.549130   34.417900      6.00      15.9994
     182     2 H    1    9.332040    3.795360   34.494600      1.00       1.0079
     183     2 H    1   10.734200    4.183670   34.065500      1.00       1.0079
     184     1 O    8    1.843880    4.032820   28.219690      6.00      15.9994
     185     2 H    1    1.725160    3.040830   28.407830      1.00       1.0079
     186     2 H    1    2.198000    4.109410   27.247780      1.00       1.0079
     187     3 Pt  78    0.089508   10.997900   25.297190     10.00     195.0840
     188     3 Pt  78    2.772580   11.147800   25.044890     10.00     195.0840
     189     3 Pt  78    5.613830    0.050274   25.073580     10.00     195.0840
     190     3 Pt  78    8.500620    0.000300   25.128710     10.00     195.0840
     191     3 Pt  78   11.245664    2.700550   25.190940     10.00     195.0840
     192     3 Pt  78    2.723290    2.675760   25.139530     10.00     195.0840
     193     3 Pt  78    5.488250    2.749740   25.004610     10.00     195.0840
     194     3 Pt  78    8.416270    2.808540   25.051900     10.00     195.0840
     195     3 Pt  78   11.200000    5.428100   25.131150     10.00     195.0840
     196     3 Pt  78    2.791380    5.462720   25.184230     10.00     195.0840
     197     3 Pt  78    5.467580    5.466900   25.175420     10.00     195.0840
     198     3 Pt  78    8.284490    5.511090   25.116610     10.00     195.0840
     199     3 Pt  78   11.202900    8.223610   25.177530     10.00     195.0840
     200     3 Pt  78    2.757030    8.304930   25.222680     10.00     195.0840
     201     3 Pt  78    5.516250    8.506670   25.105560     10.00     195.0840
     202     3 Pt  78    8.332920    8.321120   25.109660     10.00     195.0840
     203     3 Pt  78    1.228100    1.247430   23.010630     10.00     195.0840
     204     3 Pt  78    4.058760    1.486630   23.055990     10.00     195.0840
     205     3 Pt  78    6.911450    1.373250   23.049710     10.00     195.0840
     206     3 Pt  78    9.832420    1.317910   23.043360     10.00     195.0840
     207     3 Pt  78    1.325890    4.185420   23.143650     10.00     195.0840
     208     3 Pt  78    4.136180    4.256030   23.164580     10.00     195.0840
     209     3 Pt  78    6.941090    4.294450   23.122850     10.00     195.0840
     210     3 Pt  78    9.843760    4.088740   23.047420     10.00     195.0840
     211     3 Pt  78    1.320820    6.945190   23.083090     10.00     195.0840
     212     3 Pt  78    4.048560    7.074940   23.154840     10.00     195.0840
     213     3 Pt  78    6.834920    7.069920   23.006030     10.00     195.0840
     214     3 Pt  78    9.772560    6.939540   23.117330     10.00     195.0840
     215     3 Pt  78    1.376360    9.790740   23.253990     10.00     195.0840
     216     3 Pt  78    4.235820    9.840200   22.983570     10.00     195.0840
     217     3 Pt  78    7.077340    9.711950   23.035240     10.00     195.0840
     218     3 Pt  78    9.824620    9.856060   23.185450     10.00     195.0840
     219     3 Pt  78   11.173300   11.160100   21.020290     10.00     195.0840
     220     3 Pt  78    2.811410   11.175300   21.034490     10.00     195.0840
     221     3 Pt  78    5.707520    0.072034   21.009310     10.00     195.0840
     222     3 Pt  78    8.432490    0.079484   20.990825     10.00     195.0840
     223     3 Pt  78   11.244200    2.695380   20.874557     10.00     195.0840
     224     3 Pt  78    2.867320    2.926410   21.033620     10.00     195.0840
     225     3 Pt  78    5.629150    2.936520   21.096730     10.00     195.0840
     226     3 Pt  78    8.385450    2.915190   21.076710     10.00     195.0840
     227     3 Pt  78   11.213200    5.420800   21.019050     10.00     195.0840
     228     3 Pt  78    2.771230    5.603340   21.084460     10.00     195.0840
     229     3 Pt  78    5.456600    5.702550   21.016120     10.00     195.0840
     230     3 Pt  78    8.403450    5.584100   21.018720     10.00     195.0840
     231     3 Pt  78    0.064100    8.388810   21.141270     10.00     195.0840
     232     3 Pt  78    2.782870    8.425400   21.043320     10.00     195.0840
     233     3 Pt  78    5.562880    8.440410   20.961271     10.00     195.0840
     234     3 Pt  78    8.442580    8.360650   20.911024     10.00     195.0840
     235     3 Pt  78    1.537860    1.375030   18.992900     10.00     195.0840
     236     3 Pt  78    4.277250    1.479040   18.892200     10.00     195.0840
     237     3 Pt  78    6.976790    1.421640   18.929600     10.00     195.0840
     238     3 Pt  78    9.809580    1.382310   18.856900     10.00     195.0840
     239     3 Pt  78    1.398390    4.113410   18.878000     10.00     195.0840
     240     3 Pt  78    4.229710    4.212630   18.952600     10.00     195.0840
     241     3 Pt  78    7.016280    4.334450   18.960200     10.00     195.0840
     242     3 Pt  78    9.751970    4.140400   18.903900     10.00     195.0840
     243     3 Pt  78    1.491100    6.981040   19.039800     10.00     195.0840
     244     3 Pt  78    4.300000    7.070640   18.848900     10.00     195.0840
     245     3 Pt  78    7.122690    7.160480   18.941500     10.00     195.0840
     246     3 Pt  78    9.956740    6.941370   19.014700     10.00     195.0840
     247     3 Pt  78    1.370480    9.773360   19.128400     10.00     195.0840
     248     3 Pt  78    4.189610    9.974950   18.946900     10.00     195.0840
     249     3 Pt  78    7.043640    9.861020   18.943100     10.00     195.0840
     250     3 Pt  78    9.858220    9.701850   19.002700     10.00     195.0840
     251     3 Pt  78   11.190300   11.191400   16.991300     10.00     195.0840
     252     3 Pt  78    2.803490    0.044415   16.946900     10.00     195.0840
     253     3 Pt  78    5.655790    0.142758   16.858800     10.00     195.0840
     254     3 Pt  78    8.460670   11.103900   17.001500     10.00     195.0840
     255     3 Pt  78    0.011335    2.689500   16.908700     10.00     195.0840
     256     3 Pt  78    2.940700    2.853720   16.878400     10.00     195.0840
     257     3 Pt  78    5.698870    2.995140   16.926500     10.00     195.0840
     258     3 Pt  78    8.399590    2.704120   16.890400     10.00     195.0840
     259     3 Pt  78    0.062940    5.619670   17.002200     10.00     195.0840
     260     3 Pt  78    2.873700    5.676670   16.902900     10.00     195.0840
     261     3 Pt  78    5.737940    5.826670   16.796800     10.00     195.0840
     262     3 Pt  78    8.424420    5.669600   16.922400     10.00     195.0840
     263     3 Pt  78    0.123757    8.426420   17.020400     10.00     195.0840
     264     3 Pt  78    2.799400    8.470690   16.890100     10.00     195.0840
     265     3 Pt  78    5.716860    8.686650   16.794800     10.00     195.0840
     266     3 Pt  78    8.530130    8.414870   16.915300     10.00     195.0840
     267     3 Pt  78    1.399680    1.418450   14.702600     10.00     195.0840
     268     3 Pt  78    4.328020    1.516870   14.939100     10.00     195.0840
     269     3 Pt  78    7.084610    1.393760   14.886100     10.00     195.0840
     270     3 Pt  78    9.958360    1.378300   14.975500     10.00     195.0840
     271     3 Pt  78    1.520000    4.292330   15.017900     10.00     195.0840
     272     3 Pt  78    4.432590    4.221450   14.785000     10.00     195.0840
     273     3 Pt  78    7.190000    4.276690   14.851200     10.00     195.0840
     274     3 Pt  78    9.990690    4.148640   14.934100     10.00     195.0840
     275     3 Pt  78    1.378720    7.128400   14.843900     10.00     195.0840
     276     3 Pt  78    4.145890    7.180640   14.788000     10.00     195.0840
     277     3 Pt  78    7.266700    7.081680   14.648600     10.00     195.0840
     278     3 Pt  78    9.926430    6.917750   14.868800     10.00     195.0840
     279     3 Pt  78    1.430240    9.913640   15.069000     10.00     195.0840
     280     3 Pt  78    4.225910    9.930560   14.860400     10.00     195.0840
     281     3 Pt  78    7.106740    9.939470   14.707000     10.00     195.0840
     282     3 Pt  78    9.834310    9.779140   14.930400     10.00     195.0840




 SCF PARAMETERS         Density guess:                                   RESTART
                        --------------------------------------------------------
                        max_scf:                                             500
                        max_scf_history:                                       0
                        max_diis:                                              4
                        --------------------------------------------------------
                        eps_scf:                                        1.00E-06
                        eps_scf_history:                                0.00E+00
                        eps_diis:                                       1.00E-01
                        eps_eigval:                                     1.00E-05
                        --------------------------------------------------------
                        level_shift [a.u.]:                                 0.00
                        added MOs                                       500    0
                        --------------------------------------------------------
                        Mixing method:                            BROYDEN_MIXING
                                                charge density mixing in g-space
                        --------------------------------------------------------
                        Smear method:                                FERMI_DIRAC
                        Electronic temperature [K]:                        400.0
                        Electronic temperature [a.u.]:                  1.27E-03
                        Accuracy threshold:                             1.00E-10
                        --------------------------------------------------------
                        No outer SCF

 PW_GRID| Information for grid number                                          1
 PW_GRID| Grid distributed over                                    64 processors
 PW_GRID| Real space group dimensions                                    64    1
 PW_GRID| the grid is blocked:                                                NO
 PW_GRID| Cutoff [a.u.]                                                    200.0
 PW_GRID| spherical cutoff:                                                   NO
 PW_GRID|   Bounds   1            -67      67                Points:         135
 PW_GRID|   Bounds   2            -67      67                Points:         135
 PW_GRID|   Bounds   3           -378     377                Points:         756
 PW_GRID| Volume element (a.u.^3)  0.3717E-02     Volume (a.u.^3)     51208.7312
 PW_GRID| Grid span                                                    FULLSPACE
 PW_GRID|   Distribution                         Average         Max         Min
 PW_GRID|   G-Vectors                           215282.8      215325      215190
 PW_GRID|   G-Rays                                1594.7        1595        1594
 PW_GRID|   Real Space Points                   215282.8      306180      204120

 PW_GRID| Information for grid number                                          2
 PW_GRID| Number of the reference grid                                         1
 PW_GRID| Grid distributed over                                    64 processors
 PW_GRID| Real space group dimensions                                    64    1
 PW_GRID| the grid is blocked:                                                NO
 PW_GRID| Cutoff [a.u.]                                                     66.7
 PW_GRID| spherical cutoff:                                                   NO
 PW_GRID|   Bounds   1            -40      39                Points:          80
 PW_GRID|   Bounds   2            -40      39                Points:          80
 PW_GRID|   Bounds   3           -210     209                Points:         420
 PW_GRID| Volume element (a.u.^3)  0.1905E-01     Volume (a.u.^3)     51208.7312
 PW_GRID| Grid span                                                    FULLSPACE
 PW_GRID|   Distribution                         Average         Max         Min
 PW_GRID|   G-Vectors                            42000.0       42800       41040
 PW_GRID|   G-Rays                                 525.0         535         513
 PW_GRID|   Real Space Points                    42000.0       67200       33600

 PW_GRID| Information for grid number                                          3
 PW_GRID| Number of the reference grid                                         1
 PW_GRID| Grid distributed over                                    64 processors
 PW_GRID| Real space group dimensions                                     8    8
 PW_GRID| the grid is blocked:                                                NO
 PW_GRID| Cutoff [a.u.]                                                     22.2
 PW_GRID| spherical cutoff:                                                   NO
 PW_GRID|   Bounds   1            -22      22                Points:          45
 PW_GRID|   Bounds   2            -22      22                Points:          45
 PW_GRID|   Bounds   3           -126     125                Points:         252
 PW_GRID| Volume element (a.u.^3)  0.1004         Volume (a.u.^3)     51208.7312
 PW_GRID| Grid span                                                    FULLSPACE
 PW_GRID|   Distribution                         Average         Max         Min
 PW_GRID|   G-Vectors                             7973.4        8415        7650
 PW_GRID|   G-Rays                                 177.2         187         170
 PW_GRID|   Real Space Points                     7973.4        9072        6300

 PW_GRID| Information for grid number                                          4
 PW_GRID| Number of the reference grid                                         1
 PW_GRID| Grid distributed over                                    64 processors
 PW_GRID| Real space group dimensions                                     8    8
 PW_GRID| the grid is blocked:                                                NO
 PW_GRID| Cutoff [a.u.]                                                      7.4
 PW_GRID| spherical cutoff:                                                   NO
 PW_GRID|   Bounds   1            -13      13                Points:          27
 PW_GRID|   Bounds   2            -13      13                Points:          27
 PW_GRID|   Bounds   3            -70      69                Points:         140
 PW_GRID| Volume element (a.u.^3)  0.5018         Volume (a.u.^3)     51208.7312
 PW_GRID| Grid span                                                    FULLSPACE
 PW_GRID|   Distribution                         Average         Max         Min
 PW_GRID|   G-Vectors                             1594.7        2106        1323
 PW_GRID|   G-Rays                                  59.1          78          49
 PW_GRID|   Real Space Points                     1594.7        2240        1260

 POISSON| Solver                                          IMPLICIT (GENERALIZED)
 POISSON| Boundary Condition                                PERIODIC & DIRICHLET
 POISSON| Maximum number of iterations                                        30
 POISSON| Convergence threshold                                         1.00E-08
 POISSON| Dielectric Constant                                              80.00
 POISSON| Relaxation parameter                                          1.00E+00

 RS_GRID| Information for grid number                                          1
 RS_GRID|   Bounds   1            -67      67                Points:         135
 RS_GRID|   Bounds   2            -67      67                Points:         135
 RS_GRID|   Bounds   3           -378     377                Points:         756
 RS_GRID| Real space distribution over                                 64 groups
 RS_GRID| Real space distribution along direction                              3
 RS_GRID| Border size                                                         35
 RS_GRID|   Distribution                         Average         Max         Min
 RS_GRID|   Planes                                  81.8          82          81

 RS_GRID| Information for grid number                                          2
 RS_GRID|   Bounds   1            -40      39                Points:          80
 RS_GRID|   Bounds   2            -40      39                Points:          80
 RS_GRID|   Bounds   3           -210     209                Points:         420
 RS_GRID| Real space distribution over                                 64 groups
 RS_GRID| Real space distribution along direction                              3
 RS_GRID| Border size                                                         23
 RS_GRID|   Distribution                         Average         Max         Min
 RS_GRID|   Planes                                  52.6          53          52

 RS_GRID| Information for grid number                                          3
 RS_GRID|   Bounds   1            -22      22                Points:          45
 RS_GRID|   Bounds   2            -22      22                Points:          45
 RS_GRID|   Bounds   3           -126     125                Points:         252
 RS_GRID| Real space fully replicated
 RS_GRID| Group size                                                           1

 RS_GRID| Information for grid number                                          4
 RS_GRID|   Bounds   1            -13      13                Points:          27
 RS_GRID|   Bounds   2            -13      13                Points:          27
 RS_GRID|   Bounds   3            -70      69                Points:         140
 RS_GRID| Real space fully replicated
 RS_GRID| Group size                                                           1

 Number of electrons:                                                       1456
 Number of occupied orbitals:                                                728
 Number of molecular orbitals:                                              1228

 Number of orbital functions:                                               3346
 Number of independent orbital functions:                                   3346

 Extrapolation method: initial_guess

 *** WARNING in qs_initial_guess.F:280 :: User requested to restart the    ***
 *** wavefunction from the file named: cp2k-RESTART.wfn. This file does    ***
 *** not exist. Please check the existence of the file or change properly  ***
 *** the value of the keyword WFN_RESTART_FILE_NAME. Calculation continues ***
 *** using ATOMIC GUESS.                                                   ***


 Atomic guess: The first density matrix is obtained in terms of atomic orbitals
               and electronic configurations assigned to each atomic kind

 Guess for atomic kind: O

 Electronic structure
    Total number of core electrons                                          2.00
    Total number of valence electrons                                       6.00
    Total number of electrons                                               8.00
    Multiplicity                                                   not specified
    S   [  2.00] 2.00
    P      4.00


 *******************************************************************************
                  Iteration          Convergence                     Energy [au]
 *******************************************************************************
                          1        0.702811                     -15.577904332270
                          2        0.612408                     -15.588447180504
                          3        0.955344E-02                 -15.655871208406
                          4        0.223754E-02                 -15.655885053552
                          5        0.157183E-02                 -15.655885461027
                          6        0.124953E-02                 -15.655885607150
                          7        0.312011E-06                 -15.655885858066

 Energy components [Hartree]           Total Energy ::          -15.655885858066
                                        Band Energy ::           -2.983128125584
                                     Kinetic Energy ::           11.754765134683
                                   Potential Energy ::          -27.410650992749
                                      Virial (-V/T) ::            2.331875684345
                                        Core Energy ::          -26.153522949071
                                          XC Energy ::           -3.157392363346
                                     Coulomb Energy ::           13.655029454351
                       Total Pseudopotential Energy ::          -37.943026860963
                       Local Pseudopotential Energy ::          -39.220419683052
                    Nonlocal Pseudopotential Energy ::            1.277392822089
                                        Confinement ::            0.347387772086

 Orbital energies  State     L     Occupation   Energy[a.u.]          Energy[eV]

                       1     0          2.000      -0.861522          -23.443215

                       1     1          4.000      -0.315021           -8.572154


 Total Electron Density at R=0:                                         0.000093

 Guess for atomic kind: H

 Electronic structure
    Total number of core electrons                                          0.00
    Total number of valence electrons                                       1.00
    Total number of electrons                                               1.00
    Multiplicity                                                   not specified
    S      1.00


 *******************************************************************************
                  Iteration          Convergence                     Energy [au]
 *******************************************************************************
                          1        0.250972E-02                  -0.375256815885
                          2        0.570752E-04                  -0.375258666164
                          3        0.832405E-09                  -0.375258667122

 Energy components [Hartree]           Total Energy ::           -0.375258667122
                                        Band Energy ::           -0.076317618391
                                     Kinetic Energy ::            0.771356566341
                                   Potential Energy ::           -1.146615233463
                                      Virial (-V/T) ::            1.486491829455
                                        Core Energy ::           -0.456090715790
                                          XC Energy ::           -0.314218627334
                                     Coulomb Energy ::            0.395050676003
                       Total Pseudopotential Energy ::           -1.238482237174
                       Local Pseudopotential Energy ::           -1.238482237174
                    Nonlocal Pseudopotential Energy ::            0.000000000000
                                        Confinement ::            0.110349550431

 Orbital energies  State     L     Occupation   Energy[a.u.]          Energy[eV]

                       1     0          1.000      -0.076318           -2.076708


 Total Electron Density at R=0:                                         0.425022

 Guess for atomic kind: Pt

 Electronic structure
    Total number of core electrons                                         68.00
    Total number of valence electrons                                      10.00
    Total number of electrons                                              78.00
    Multiplicity                                                   not specified
    S   [  2.00  2.00  2.00  2.00  2.00] 1.00
    P   [  6.00  6.00  6.00  6.00]
    D   [ 10.00 10.00] 9.00
    F   [ 14.00]


 *******************************************************************************
                  Iteration          Convergence                     Energy [au]
 *******************************************************************************
                          1         2.29911                     -25.410584254802
                          2         1.50804                     -25.553504859014
                          3        0.745354E-01                 -25.844821108836
                          4        0.833183E-02                 -25.845541673586
                          5        0.768813E-04                 -25.845549633556
                          6        0.379573E-04                 -25.845549634102
                          7        0.119493E-06                 -25.845549634278

 Energy components [Hartree]           Total Energy ::          -25.845549634278
                                        Band Energy ::           -2.032075504320
                                     Kinetic Energy ::           20.024378342578
                                   Potential Energy ::          -45.869927976856
                                      Virial (-V/T) ::            2.290704220231
                                        Core Energy ::          -46.707588762879
                                          XC Energy ::           -4.269788209166
                                     Coulomb Energy ::           25.131827337767
                       Total Pseudopotential Energy ::          -66.828615272351
                       Local Pseudopotential Energy ::          -50.959090512378
                    Nonlocal Pseudopotential Energy ::          -15.869524759973
                                        Confinement ::            0.966481668931

 Orbital energies  State     L     Occupation   Energy[a.u.]          Energy[eV]

                       1     0          1.000      -0.179889           -4.895022

                       1     2          9.000      -0.205799           -5.600063


 Total Electron Density at R=0:                                         0.000037
 Re-scaling the density matrix to get the right number of electrons
                  # Electrons              Trace(P)               Scaling factor
                         1456              1456.000                        1.000


 SCF WAVEFUNCTION OPTIMIZATION

  Step     Update method      Time    Convergence         Total energy    Change
  ------------------------------------------------------------------------------

  POISSON| IMPLICIT (GENERALIZED) SOLVER ---------------------------------------
  POISSON| Preparing Dirichlet regions ...
  POISSON| Dirichlet region    1
  POISSON|     type : axis-aligned planar
  POISSON|     applied potential :   0.0000E+00  [Eh/e]
  POISSON| Dirichlet region    2
  POISSON|     type : axis-aligned planar
  POISSON|     applied potential :   0.0000E+00  [Eh/e]
  POISSON| ... Done.
  ------------------------------------------------------------------------------

  POISSON|   iter        pres error      nabs error        E_hartree    delta E
  POISSON|      1        0.4228E-07      0.3833E-01    2015.8285578272  0.20E+04
  POISSON|      2        0.3257E-15      0.4228E-07    2015.8285578271 -0.17E-09
  POISSON| Poisson solver converged in 2 iterations.
     1 NoMix/Diag. 0.30E+00    2.6     0.73694568     -3568.6550367451 -3.57E+03
[...]
    235      3      Pt         -0.01194346    -0.00610859    -0.00429361
    236      3      Pt         -0.00605509    -0.00048524     0.01829717
    237      3      Pt          0.01089390     0.01233969     0.00568397
    238      3      Pt         -0.00075344    -0.00772602     0.02744768
    239      3      Pt          0.00652885     0.00953115     0.00939330
    240      3      Pt          0.00309991     0.01676843    -0.00237433
    241      3      Pt         -0.00440785    -0.00366003     0.00173215
    242      3      Pt          0.00802842     0.00411329    -0.00055565
    243      3      Pt         -0.00170086    -0.00659779    -0.00067308
    244      3      Pt         -0.00570477     0.00623316     0.00214585
    245      3      Pt         -0.01681841    -0.01985150    -0.01171282
    246      3      Pt         -0.00501023    -0.00250704     0.00072198
    247      3      Pt          0.01010782     0.01056133    -0.02513165
    248      3      Pt          0.01095568    -0.01421877    -0.00141631
    249      3      Pt         -0.00922692     0.00928901     0.00792756
    250      3      Pt          0.00194274     0.01187517     0.00532686
    251      3      Pt          0.02125993    -0.00377300     0.00559562
    252      3      Pt          0.00089819     0.00637938     0.00132558
    253      3      Pt          0.00136265    -0.00885367     0.00815535
    254      3      Pt         -0.00601564     0.01664373    -0.01838856
    255      3      Pt          0.01639906     0.01211931     0.00901632
    256      3      Pt         -0.01458285    -0.00170776    -0.00135939
    257      3      Pt          0.00128332    -0.00211737    -0.00144897
    258      3      Pt          0.00509062     0.01610504     0.00236552
    259      3      Pt         -0.00571105    -0.00069452    -0.00652447
    260      3      Pt          0.01115841     0.00277743     0.00104695
    261      3      Pt         -0.01253497    -0.00027744    -0.00155740
    262      3      Pt          0.01607562    -0.00534920    -0.00049488
    263      3      Pt         -0.01875322    -0.00943663    -0.00458966
    264      3      Pt          0.02201184    -0.00090648     0.02074419
    265      3      Pt         -0.00444981    -0.02430416     0.00528117
    266      3      Pt         -0.00365977    -0.00611373    -0.00694669
    267      3      Pt          0.01507137     0.00335939     0.02276157
    268      3      Pt         -0.00864724    -0.00478412    -0.01704057
    269      3      Pt          0.00697468     0.01068523    -0.00530146
    270      3      Pt         -0.01547075    -0.01140438    -0.01868816
    271      3      Pt         -0.00356408    -0.00728562    -0.01674043
    272      3      Pt         -0.00918590     0.01648286     0.00471544
    273      3      Pt         -0.00020314    -0.00490433    -0.00521585
    274      3      Pt         -0.00633812     0.00623455     0.00071309
    275      3      Pt          0.00567404    -0.00762900     0.00659945
    276      3      Pt          0.01191977    -0.00797048     0.00447890
    277      3      Pt         -0.01441841     0.00224294     0.01595332
    278      3      Pt          0.00541831     0.00636668     0.00430191
    279      3      Pt         -0.00959725    -0.00131312    -0.03108819
    280      3      Pt         -0.00183778     0.00964873    -0.00233577
    281      3      Pt         -0.00070841    -0.00894125     0.00982098
    282      3      Pt          0.00987636     0.00217929    -0.00651483
 SUM OF ATOMIC FORCES          -0.02411659     0.02585498     0.00918335     0.03652977

 -------------------------------------------------------------------------------
 -                                                                             -
 -                                DBCSR STATISTICS                             -
 -                                                                             -
 -------------------------------------------------------------------------------
 COUNTER                                    TOTAL       BLAS       SMM       ACC
 flops     5 x     5 x   128           5504307200       0.0%    100.0%      0.0%
 flops     5 x     5 x   140           6020336000       0.0%    100.0%      0.0%
 flops     5 x    13 x   128           6770749440       0.0%    100.0%      0.0%
 flops    13 x     5 x   128           6780067840       0.0%    100.0%      0.0%
 flops     5 x    13 x   140           7405507200       0.0%    100.0%      0.0%
 flops    13 x     5 x   140           7415699200       0.0%    100.0%      0.0%
 flops    13 x    13 x   128           8222928896       0.0%    100.0%      0.0%
 flops    13 x    13 x   140           8993828480       0.0%    100.0%      0.0%
 flops    13 x    20 x   128           9094758400       0.0%    100.0%      0.0%
 flops    20 x    13 x   128           9161850880       0.0%    100.0%      0.0%
 flops    20 x     5 x   128           9424486400       0.0%    100.0%      0.0%
 flops     5 x    20 x   128           9450291200       0.0%    100.0%      0.0%
 flops    13 x    20 x   140           9947392000       0.0%    100.0%      0.0%
 flops    20 x    13 x   140          10020774400       0.0%    100.0%      0.0%
 flops    20 x     5 x   140          10308032000       0.0%    100.0%      0.0%
 flops     5 x    20 x   140          10336256000       0.0%    100.0%      0.0%
 flops     5 x     5 x   160          41282304000       0.0%    100.0%      0.0%
 flops     5 x    13 x   160          50780620800       0.0%    100.0%      0.0%
 flops    13 x     5 x   160          50850508800       0.0%    100.0%      0.0%
 flops    20 x    20 x   128          53398732800       0.0%    100.0%      0.0%
 flops    20 x    20 x   140          58404864000       0.0%    100.0%      0.0%
 flops    13 x    13 x   160          61671966720       0.0%    100.0%      0.0%
 flops    13 x    20 x   160          68210688000       0.0%    100.0%      0.0%
 flops    20 x    13 x   160          68713881600       0.0%    100.0%      0.0%
 flops    20 x     5 x   160          70683648000       0.0%    100.0%      0.0%
 flops     5 x    20 x   160          70877184000       0.0%    100.0%      0.0%
 flops    20 x    20 x   160         400490496000       0.0%    100.0%      0.0%
 flops inhomo. stacks                           0       0.0%      0.0%      0.0%
 flops total                         1.130222E+12       0.0%    100.0%      0.0%
 flops max/rank                     19.134008E+09       0.0%    100.0%      0.0%
 matmuls inhomo. stacks                         0       0.0%      0.0%      0.0%
 matmuls total                           27180160       0.0%    100.0%      0.0%
 number of processed stacks                516096       0.0%    100.0%      0.0%
 average stack size                                     0.0      52.7       0.0
 marketing flops                     1.903920E+12
 -------------------------------------------------------------------------------
 # multiplications                            112
 max memory usage/rank             395.149312E+06
 # max total images/rank                        1
 # max 3D layers                                1
 # MPI messages exchanged                  100352
 MPI messages size (bytes):
  total size                        51.541893E+09
  min size                         425.984000E+03
  max size                         536.320000E+03
  average size                     513.611031E+03
 MPI breakdown and total messages size (bytes):
             size <=      128                   0                        0
       128 < size <=     8192                   0                        0
      8192 < size <=    32768                   0                        0
     32768 < size <=   131072                   0                        0
    131072 < size <=  4194304              100352              51541891072
   4194304 < size <= 16777216                   0                        0
  16777216 < size                               0                        0
 -------------------------------------------------------------------------------
 -                                                                             -
 -                      DBCSR MESSAGE PASSING PERFORMANCE                      -
 -                                                                             -
 -------------------------------------------------------------------------------
 ROUTINE             CALLS      AVE VOLUME [Bytes]
 MP_Group              113
 MP_Bcast               28                     12.
 MP_Allreduce          858                      9.
 MP_Alltoall          3136                 329058.
 MP_Wait              8960
 MP_ISend             3584                 231124.
 MP_IRecv             3584                 224420.
 MP_Memory            7840
 -------------------------------------------------------------------------------

 MEMORY| Estimated peak process memory [MiB]                                 375

 -------------------------------------------------------------------------------
 ----                             MULTIGRID INFO                            ----
 -------------------------------------------------------------------------------
 count for grid        1:         558054          cutoff [a.u.]          200.00
 count for grid        2:         547427          cutoff [a.u.]           66.67
 count for grid        3:         368698          cutoff [a.u.]           22.22
 count for grid        4:         289304          cutoff [a.u.]            7.41
 total gridlevel count  :        1763483

 -------------------------------------------------------------------------------
 -                                                                             -
 -                         MESSAGE PASSING PERFORMANCE                         -
 -                                                                             -
 -------------------------------------------------------------------------------

 ROUTINE             CALLS      AVE VOLUME [Bytes]
 MP_Group                4
 MP_Bcast              323                1725271.
 MP_Allreduce         2559                   1077.
 MP_Sync                 4
 MP_Alltoall          6369               10909944.
 MP_SendRecv           252                   5394.
 MP_ISendRecv        28224                  45248.
 MP_Wait             63028
 MP_ISend            32544                 102760.
 MP_IRecv            32544                 102760.
 MP_Recv               228                 856576.
 MP_Write_All            2                 169218.
 -------------------------------------------------------------------------------


 -------------------------------------------------------------------------------
 -                                                                             -
 -                           R E F E R E N C E S                               -
 -                                                                             -
 -------------------------------------------------------------------------------

 CP2K version 7.1, the CP2K developers group (2019).
 CP2K is freely available from https://www.cp2k.org/ .

 Bani-Hashemian, MH; Bruck, S; Luisier, M; VandeVondele, J.
 JOURNAL OF CHEMICAL PHYSICS, 144 (4), 044113 (2016).
 A generalized Poisson solver for first-principles device simulations.
 https://dx.doi.org/10.1063/1.4940796

 Schuett, Ole; Messmer, Peter; Hutter, Juerg; VandeVondele, Joost.
 Electronic Structure Calculations on Graphics Processing Units, John
 Wiley & Sons, Ltd, 173-190 (2016).
 GPU-Accelerated Sparse Matrix-Matrix Multiplication for
 Linear Scaling Density Functional Theory.
 https://dx.doi.org/10.1002/9781118670712.ch8

 Borstnik, U; VandeVondele, J; Weber, V; Hutter, J.
 PARALLEL COMPUTING, 40 (5-6), 47-58 (2014).
 Sparse matrix multiplication: The distributed block-compressed sparse
 row library.
 https://dx.doi.org/10.1016/j.parco.2014.03.012

 Hutter, J; Iannuzzi, M; Schiffmann, F; VandeVondele, J.
 WIREs Comput Mol Sci., 4 (1), 15-25 (2014).
 CP2K: atomistic simulations of condensed matter systems.
 https://dx.doi.org/10.1002/wcms.1159

 Marek, A; Blum, V; Johanni, R; Havu, V; Lang, B; Auckenthaler, T;
 Heinecke, A; Bungartz, H; Lederer, H.
 Journal of Physics: Condensed Matter, 26 (21), (2014).
 The ELPA library: scalable parallel eigenvalue solutions for
 electronic structure
 theory and computational science.
 https://dx.doi.org/10.1088/0953-8984/26/21/213201

 Grimme, S; Ehrlich, S; Goerigk, L.
 JOURNAL OF COMPUTATIONAL CHEMISTRY, 32, 1456 (2011).
 Effect of the damping function in dispersion corrected density functional theory.
 https://dx.doi.org/10.1002/jcc.21759

 Grimme, S; Antony, J; Ehrlich, S; Krieg, H.
 JOURNAL OF CHEMICAL PHYSICS, 132 (15), 154104 (2010).
 A consistent and accurate ab initio parametrization of density
 functional dispersion correction (DFT-D) for the 94 elements H-Pu.
 https://dx.doi.org/10.1063/1.3382344

 VandeVondele, J; Hutter, J.
 JOURNAL OF CHEMICAL PHYSICS, 127 (11), 114105 (2007).
 Gaussian basis sets for accurate calculations on molecular systems in
 gas and condensed phases.
 https://dx.doi.org/10.1063/1.2770708

 Krack, M.
 THEORETICAL CHEMISTRY ACCOUNTS, 114 (1-3), 145-152 (2005).
 Pseudopotentials for H to Kr optimized for gradient-corrected
 exchange-correlation functionals.
 https://dx.doi.org/10.1007/s00214-005-0655-y

 VandeVondele, J; Krack, M; Mohamed, F; Parrinello, M; Chassaing, T;
 Hutter, J. COMPUTER PHYSICS COMMUNICATIONS, 167 (2), 103-128 (2005).
 QUICKSTEP: Fast and accurate density functional calculations using a
 mixed Gaussian and plane waves approach.
 https://dx.doi.org/10.1016/j.cpc.2004.12.014

 Frigo, M; Johnson, SG.
 PROCEEDINGS OF THE IEEE, 93 (2), 216-231 (2005).
 The design and implementation of FFTW3.
 https://dx.doi.org/10.1109/JPROC.2004.840301

 Hartwigsen, C; Goedecker, S; Hutter, J.
 PHYSICAL REVIEW B, 58 (7), 3641-3662 (1998).
 Relativistic separable dual-space Gaussian pseudopotentials from H to Rn.
 https://dx.doi.org/10.1103/PhysRevB.58.3641

 Lippert, G; Hutter, J; Parrinello, M.
 MOLECULAR PHYSICS, 92 (3), 477-487 (1997).
 A hybrid Gaussian and plane wave density functional scheme.
 https://dx.doi.org/10.1080/002689797170220

 Perdew, JP; Burke, K; Ernzerhof, M.
 PHYSICAL REVIEW LETTERS, 77 (18), 3865-3868 (1996).
 Generalized gradient approximation made simple.
 https://dx.doi.org/10.1103/PhysRevLett.77.3865

 Goedecker, S; Teter, M; Hutter, J.
 PHYSICAL REVIEW B, 54 (3), 1703-1710 (1996).
 Separable dual-space Gaussian pseudopotentials.
 https://dx.doi.org/10.1103/PhysRevB.54.1703


 -------------------------------------------------------------------------------
 -                                                                             -
 -                                T I M I N G                                  -
 -                                                                             -
 -------------------------------------------------------------------------------
 SUBROUTINE                       CALLS  ASD         SELF TIME        TOTAL TIME
                                MAXIMUM       AVERAGE  MAXIMUM  AVERAGE  MAXIMUM
 CP2K                                 1  1.0    0.020    0.037  303.042  303.046
 qs_forces                            1  2.0    0.000    0.001  302.665  302.669
 qs_energies                          1  3.0    0.000    0.000  299.351  299.356
 scf_env_do_scf                       1  4.0    0.000    0.000  297.685  297.708
 scf_env_do_scf_inner_loop          111  5.0    0.005    0.017  297.685  297.708
 rebuild_ks_matrix                  112  7.0    0.000    0.001  206.183  206.209
 qs_ks_build_kohn_sham_matrix       112  8.0    0.012    0.014  206.183  206.208
 qs_ks_update_qs_env                111  6.0    0.001    0.001  204.175  204.199
 pw_transfer                       5679 12.0    0.280    0.356  147.115  150.066
 fft_wrap_pw1pw2                   5679 13.0    0.055    0.067  146.835  149.719
 fft_wrap_pw1pw2_200               5007 14.1    9.004    9.920  145.254  147.993
 fft3d_ps                          5679 15.0   59.428   81.792  118.311  123.220
 pw_poisson_solve                   112  9.0    0.003    0.003  119.040  119.164
 implicit_poisson_solver_mixed_     112 10.0    2.122    2.359  112.204  112.291
 derive_fft                         620 12.2    0.027    0.032   77.953   80.165
 apply_P_operator                   508 11.2    0.916    1.002   64.861   66.093
 mp_alltoall_z22v                  5679 17.0   46.342   53.252   46.342   53.252
 qs_rho_update_rho                  112  6.0    0.000    0.001   44.101   44.191
 calculate_rho_elec                 112  7.0   21.471   31.959   44.101   44.191
 sum_up_and_integrate               112  9.0    0.267    0.363   43.528   43.555
 integrate_v_rspace                 112 10.0   21.385   33.906   43.261   43.300
 qs_scf_new_mos                     111  6.0    0.001    0.002   38.826   38.921
 x_to_yz                           3402 16.2    8.322   11.808   33.738   36.914
 qs_vxc_create                      112  9.0    0.002    0.002   35.802   35.809
 xc_vxc_pw_create                   112 10.0    0.396    0.449   35.800   35.808
 eigensolver                        111  7.0    0.006    0.008   35.662   35.680
 cp_fm_diag_elpa                    111  8.0    0.001    0.001   28.021   28.031
 cp_fm_diag_elpa_base               111  9.0   27.469   27.556   28.020   28.030
 yz_to_x                           1829 15.9    3.778    4.155   24.666   27.606
 density_rs2pw                      112  8.0    0.005    0.006   20.673   25.702
 rs_pw_transfer                     900 10.5    0.009    0.012   18.625   23.747
 xc_rho_set_and_dset_create         112 11.0    0.140    0.148   17.700   21.582
 apply_poisson_operator_fft         112 11.0    0.001    0.001   21.217   21.277
 mp_alltoall_d11v                  1570 10.3   13.601   18.797   13.601   18.797
 apply_inv_laplace_operator_fft     312 11.6    0.400    0.488   18.628   18.791
 rs_distribute_matrix               225  9.5    0.272    0.610   13.586   18.642
 rs_pw_transfer_RS2PW_200           114 10.0    1.348    1.778   12.691   17.874
 mp_waitany                       32544 12.5   12.439   17.461   12.439   17.461
 ps_implicit_compute_veps           112 11.0    0.286    0.310   14.300   15.069
 ps_implicit_compute_error_fft      198 11.0    0.640    0.825   13.630   13.978
 pw_scatter_p                      3626 15.2   11.814   12.681   11.814   12.681
 gspace_mixing                      110  6.0    0.110    0.156   10.717   10.718
 xc_functional_eval                 112 12.0    0.001    0.001    6.724    9.989
 pbe_lda_eval                       112 13.0    6.724    9.989    6.724    9.989
 potential_pw2rs                    112 11.0    0.010    0.013    8.752    8.786
 pw_gather_p                       2053 14.6    7.575    8.003    7.575    8.003
 cp_fm_triangular_multiply          333  8.0    7.191    7.392    7.191    7.392
 broyden_mixing                     110  7.0    6.900    7.018    7.218    7.234
 apply_laplace_operator_fft         112 12.0    0.156    0.191    6.584    6.685
 pw_derive                         2532 12.7    6.305    6.675    6.305    6.675
 -------------------------------------------------------------------------------

 The number of warnings for this run is : 1

 -------------------------------------------------------------------------------
  **** **** ******  **  PROGRAM ENDED AT                 2022-12-12 23:32:11.268
 ***** ** ***  *** **   PROGRAM RAN ON                                   c53-030
 **    ****   ******    PROGRAM RAN BY                                     jxzhu
 ***** **    ** ** **   PROGRAM PROCESS ID                                377963
  **** **  *******  **  PROGRAM STOPPED IN /data/jxzhu/2022_leiden/03.e_polariza
                                           bility/03.smearing_temp/asymmetric/40
                                           0
