 DBCSR| CPU Multiplication driver                                           XSMM
 DBCSR| Multrec recursion limit                                              512
 DBCSR| Multiplication stack size                                           1000
 DBCSR| Maximum elements for images                                    UNLIMITED
 DBCSR| Multiplicative factor virtual images                                   1
 DBCSR| Use multiplication densification                                       T
 DBCSR| Multiplication size stacks                                             3
 DBCSR| Use memory pool for CPU allocation                                     F
 DBCSR| Number of 3D layers                                               SINGLE
 DBCSR| Use MPI memory allocation                                              F
 DBCSR| Use RMA algorithm                                                      F
 DBCSR| Use Communication thread                                               T
 DBCSR| Communication thread load                                             87
 DBCSR| MPI: My node id                                                        0
 DBCSR| MPI: Number of nodes                                                  32
 DBCSR| OMP: Current number of threads                                         1
 DBCSR| OMP: Max number of threads                                             1
 DBCSR| Split modifier for TAS multiplication algorithm                  1.0E+00


  **** **** ******  **  PROGRAM STARTED AT               2023-05-08 05:37:56.336
 ***** ** ***  *** **   PROGRAM STARTED ON                               c53-010
 **    ****   ******    PROGRAM STARTED BY                                 jxzhu
 ***** **    ** ** **   PROGRAM PROCESS ID                                358958
  **** **  *******  **  PROGRAM STARTED IN /data/jxzhu/nnp/dp_workdir/ecd215d8f1
                                           756e1c8fe1226516a4c6e8f724df5f/task.0
                                           00.000000

 CP2K| version string:                                          CP2K version 9.1
 CP2K| source code revision number:                                  git:d8d7100
 CP2K| cp2kflags: ndebug omp libint fftw3 libxc elpa parallel mpi3 scalapack xsm
 CP2K|            m max_contr=4 no_ipi_driver plumed2 mkl
 CP2K| is freely available from                            https://www.cp2k.org/
 CP2K| Program compiled at                           Tue Mar 7 19:02:13 CST 2023
 CP2K| Program compiled on                                                 mgt02
 CP2K| Program compiled for                                  Linux-x86-64-intelx
 CP2K| Data directory path                                    /data/jxzhu/basis/
 CP2K| Input file name                                                 input.inp

 GLOBAL| Force Environment number                                              1
 GLOBAL| Basis set file name                                        BASIS_MOLOPT
 GLOBAL| Potential file name                                      GTH_POTENTIALS
 GLOBAL| MM Potential file name                                     MM_POTENTIAL
 GLOBAL| Coordinate file name                                          coord.xyz
 GLOBAL| Method name                                                        CP2K
 GLOBAL| Project name                                                       cp2k
 GLOBAL| Run type                                                   ENERGY_FORCE
 GLOBAL| FFT library                                                       FFTW3
 GLOBAL| Diagonalization library                                            ELPA
 GLOBAL| Minimum number of eigenvectors for ELPA usage                        16
 GLOBAL| Orthonormality check for eigenvectors                          DISABLED
 GLOBAL| Matrix multiplication library                                 ScaLAPACK
 GLOBAL| All-to-all communication in single precision                          F
 GLOBAL| FFTs using library dependent lengths                                  F
 GLOBAL| Grid backend                                                       AUTO
 GLOBAL| Global print level                                               MEDIUM
 GLOBAL| MPI I/O enabled                                                       T
 GLOBAL| Total number of message passing processes                            32
 GLOBAL| Number of threads for this process                                    1
 GLOBAL| This output is from process                                           0
 GLOBAL| Stack size for threads created by OpenMP (OMP_STACKSIZE)        default
 GLOBAL| CPU model name                Intel(R) Xeon(R) Gold 6226R CPU @ 2.90GHz
 GLOBAL| CPUID                                                              1003
 GLOBAL| Compiled for CPUID                                                 1002

 *** HINT in environment.F:869 :: The compiler target flags (x86_avx2)     ***
 *** used to build this binary cannot exploit all extensions of this CPU   ***
 *** model (x86_avx512). Consider compiler target flags as part of FCFLAGS ***
 *** and CFLAGS (ARCH file).                                               ***


 MEMORY| system memory details [Kb]
 MEMORY|                        rank 0           min           max       average
 MEMORY| MemTotal            196472820     196472820     196472820     196472820
 MEMORY| MemFree             172207976     172207976     172207976     172207976
 MEMORY| Buffers                    28            28            28            28
 MEMORY| Cached                7368428       7368428       7368428       7368428
 MEMORY| Slab                   806564        806564        806564        806564
 MEMORY| SReclaimable           300968        300968        300968        300968
 MEMORY| MemLikelyFree       179877400     179877400     179877400     179877400


 *** Fundamental physical constants (SI units) ***

 *** Literature: B. J. Mohr and B. N. Taylor,
 ***             CODATA recommended values of the fundamental physical
 ***             constants: 2006, Web Version 5.1
 ***             http://physics.nist.gov/constants

 Speed of light in vacuum [m/s]                             2.99792458000000E+08
 Magnetic constant or permeability of vacuum [N/A**2]       1.25663706143592E-06
 Electric constant or permittivity of vacuum [F/m]          8.85418781762039E-12
 Planck constant (h) [J*s]                                  6.62606896000000E-34
 Planck constant (h-bar) [J*s]                              1.05457162825177E-34
 Elementary charge [C]                                      1.60217648700000E-19
 Electron mass [kg]                                         9.10938215000000E-31
 Electron g factor [ ]                                     -2.00231930436220E+00
 Proton mass [kg]                                           1.67262163700000E-27
 Fine-structure constant                                    7.29735253760000E-03
 Rydberg constant [1/m]                                     1.09737315685270E+07
 Avogadro constant [1/mol]                                  6.02214179000000E+23
 Boltzmann constant [J/K]                                   1.38065040000000E-23
 Atomic mass unit [kg]                                      1.66053878200000E-27
 Bohr radius [m]                                            5.29177208590000E-11

 *** Conversion factors ***

 [u] -> [a.u.]                                              1.82288848426455E+03
 [Angstrom] -> [Bohr] = [a.u.]                              1.88972613288564E+00
 [a.u.] = [Bohr] -> [Angstrom]                              5.29177208590000E-01
 [a.u.] -> [s]                                              2.41888432650478E-17
 [a.u.] -> [fs]                                             2.41888432650478E-02
 [a.u.] -> [J]                                              4.35974393937059E-18
 [a.u.] -> [N]                                              8.23872205491840E-08
 [a.u.] -> [K]                                              3.15774647902944E+05
 [a.u.] -> [kJ/mol]                                         2.62549961709828E+03
 [a.u.] -> [kcal/mol]                                       6.27509468713739E+02
 [a.u.] -> [Pa]                                             2.94210107994716E+13
 [a.u.] -> [bar]                                            2.94210107994716E+08
 [a.u.] -> [atm]                                            2.90362800883016E+08
 [a.u.] -> [eV]                                             2.72113838565563E+01
 [a.u.] -> [Hz]                                             6.57968392072181E+15
 [a.u.] -> [1/cm] (wave numbers)                            2.19474631370540E+05
 [a.u./Bohr**2] -> [1/cm]                                   5.14048714338585E+03


 CELL_TOP| Volume [angstrom^3]:                                      5810.147385
 CELL_TOP| Vector a [angstrom    11.246     0.000     0.000   |a| =    11.246000
 CELL_TOP| Vector b [angstrom     0.000    11.246     0.000   |b| =    11.246000
 CELL_TOP| Vector c [angstrom     0.000     0.000    45.940   |c| =    45.940000
 CELL_TOP| Angle (b,c), alpha [degree]:                                90.000000
 CELL_TOP| Angle (a,c), beta  [degree]:                                90.000000
 CELL_TOP| Angle (a,b), gamma [degree]:                                90.000000
 CELL_TOP| Numerically orthorhombic:                                         YES

 GENERATE|  Preliminary Number of Bonds generated:                             0
 GENERATE|  Achieved consistency in connectivity generation.

 CELL| Volume [angstrom^3]:                                          5810.147385
 CELL| Vector a [angstrom]:      11.246     0.000     0.000   |a| =    11.246000
 CELL| Vector b [angstrom]:       0.000    11.246     0.000   |b| =    11.246000
 CELL| Vector c [angstrom]:       0.000     0.000    45.940   |c| =    45.940000
 CELL| Angle (b,c), alpha [degree]:                                    90.000000
 CELL| Angle (a,c), beta  [degree]:                                    90.000000
 CELL| Angle (a,b), gamma [degree]:                                    90.000000
 CELL| Numerically orthorhombic:                                             YES

 CELL_REF| Volume [angstrom^3]:                                      5810.147385
 CELL_REF| Vector a [angstrom    11.246     0.000     0.000   |a| =    11.246000
 CELL_REF| Vector b [angstrom     0.000    11.246     0.000   |b| =    11.246000
 CELL_REF| Vector c [angstrom     0.000     0.000    45.940   |c| =    45.940000
 CELL_REF| Angle (b,c), alpha [degree]:                                90.000000
 CELL_REF| Angle (a,c), beta  [degree]:                                90.000000
 CELL_REF| Angle (a,b), gamma [degree]:                                90.000000
 CELL_REF| Numerically orthorhombic:                                         YES

 *******************************************************************************
 *******************************************************************************
 **                                                                           **
 **     #####                         ##              ##                      **
 **    ##   ##            ##          ##              ##                      **
 **   ##     ##                       ##            ######                    **
 **   ##     ##  ##   ##  ##   #####  ##  ##   ####   ##    #####    #####    **
 **   ##     ##  ##   ##  ##  ##      ## ##   ##      ##   ##   ##  ##   ##   **
 **   ##  ## ##  ##   ##  ##  ##      ####     ###    ##   ######   ######    **
 **    ##  ###   ##   ##  ##  ##      ## ##      ##   ##   ##       ##        **
 **     #######   #####   ##   #####  ##  ##  ####    ##    #####   ##        **
 **           ##                                                    ##        **
 **                                                                           **
 **                                                ... make the atoms dance   **
 **                                                                           **
 **            Copyright (C) by CP2K developers group (2000-2021)             **
 **                      J. Chem. Phys. 152, 194103 (2020)                    **
 **                                                                           **
 *******************************************************************************

 DFT| Spin restricted Kohn-Sham (RKS) calculation                            RKS
 DFT| Multiplicity                                                             1
 DFT| Number of spin states                                                    1
 DFT| Charge                                                                   0
 DFT| Self-interaction correction (SIC)                                       NO
 DFT| Cutoffs: density                                              1.000000E-10
 DFT|          gradient                                             1.000000E-10
 DFT|          tau                                                  1.000000E-10
 DFT|          cutoff_smoothing_range                               0.000000E+00
 DFT| XC density smoothing                                                  NONE
 DFT| XC derivatives                                                          PW
 FUNCTIONAL| ROUTINE=NEW
 FUNCTIONAL| PBE:
 FUNCTIONAL| J.P.Perdew, K.Burke, M.Ernzerhof, Phys. Rev. Letter, vol. 77, n 18,
 FUNCTIONAL|  pp. 3865-3868, (1996){spin unpolarized}
 vdW POTENTIAL|                                                   Pair Potential
 vdW POTENTIAL|          DFT-D3 (Version 3.1)
 vdW POTENTIAL|          Potential Form: S. Grimme et al, JCP 132: 154104 (2010)
 vdW POTENTIAL|          Zero Damping
 vdW POTENTIAL|          Cutoff Radius [Bohr]:                             20.00
 vdW POTENTIAL|          s6 Scaling Factor:                               1.0000
 vdW POTENTIAL|          sr6 Scaling Factor:                              1.2170
 vdW POTENTIAL|          s8 Scaling Factor:                               0.7220
 vdW POTENTIAL|          Cutoff for CN calculation:                   0.1000E-05

 QS| Method:                                                                 GPW
 QS| Density plane wave grid type                        NON-SPHERICAL FULLSPACE
 QS| Number of grid levels:                                                    4
 QS| Density cutoff [a.u.]:                                                200.0
 QS| Multi grid cutoff [a.u.]: 1) grid level                               200.0
 QS|                           2) grid level                                66.7
 QS|                           3) grid level                                22.2
 QS|                           4) grid level                                 7.4
 QS| Grid level progression factor:                                          3.0
 QS| Relative density cutoff [a.u.]:                                        20.0
 QS| Interaction thresholds: eps_pgf_orb:                                3.2E-07
 QS|                         eps_filter_matrix:                          0.0E+00
 QS|                         eps_core_charge:                            1.0E-15
 QS|                         eps_rho_gspace:                             1.0E-13
 QS|                         eps_rho_rspace:                             1.0E-13
 QS|                         eps_gvg_rspace:                             3.2E-07
 QS|                         eps_ppl:                                    1.0E-02
 QS|                         eps_ppnl:                                   3.2E-09


 ATOMIC KIND INFORMATION

  1. Atomic kind: Pt                                    Number of atoms:      96

     Orbital Basis Set                      DZVP-A5-Q10-323-MOL-T1-DERIVED_SET-1

       Number of orbital shell sets:                                           1
       Number of orbital shells:                                               6
       Number of primitive Cartesian functions:                                5
       Number of Cartesian basis functions:                                   23
       Number of spherical basis functions:                                   20
       Norm type:                                                              2

       Normalised Cartesian orbitals:

                        Set   Shell   Orbital            Exponent    Coefficient

                          1       1    2s                2.521825       0.177473
                                                         1.453920      -0.063399
                                                         0.614053      -0.407089
                                                         0.232656       0.262254
                                                         0.074788       0.047371

                          1       2    3s                2.521825      -0.049056
                                                         1.453920       0.044904
                                                         0.614053      -0.009756
                                                         0.232656      -0.144709
                                                         0.074788       0.144085

                          1       3    3px               2.521825      -0.317572
                                                         1.453920       0.534826
                                                         0.614053      -0.489458
                                                         0.232656       0.245631
                                                         0.074788       0.018221
                          1       3    3py               2.521825      -0.317572
                                                         1.453920       0.534826
                                                         0.614053      -0.489458
                                                         0.232656       0.245631
                                                         0.074788       0.018221
                          1       3    3pz               2.521825      -0.317572
                                                         1.453920       0.534826
                                                         0.614053      -0.489458
                                                         0.232656       0.245631
                                                         0.074788       0.018221

                          1       4    4dx2              2.521825       3.008522
                                                         1.453920      -1.224251
                                                         0.614053       0.225691
                                                         0.232656       0.125144
                                                         0.074788      -0.015348
                          1       4    4dxy              2.521825       5.210912
                                                         1.453920      -2.120465
                                                         0.614053       0.390909
                                                         0.232656       0.216756
                                                         0.074788      -0.026584
                          1       4    4dxz              2.521825       5.210912
                                                         1.453920      -2.120465
                                                         0.614053       0.390909
                                                         0.232656       0.216756
                                                         0.074788      -0.026584
                          1       4    4dy2              2.521825       3.008522
                                                         1.453920      -1.224251
                                                         0.614053       0.225691
                                                         0.232656       0.125144
                                                         0.074788      -0.015348
                          1       4    4dyz              2.521825       5.210912
                                                         1.453920      -2.120465
                                                         0.614053       0.390909
                                                         0.232656       0.216756
                                                         0.074788      -0.026584
                          1       4    4dz2              2.521825       3.008522
                                                         1.453920      -1.224251
                                                         0.614053       0.225691
                                                         0.232656       0.125144
                                                         0.074788      -0.015348

                          1       5    5dx2              2.521825       0.698026
                                                         1.453920      -1.511486
                                                         0.614053      -0.335394
                                                         0.232656      -0.025564
                                                         0.074788      -0.002699
                          1       5    5dxy              2.521825       1.209017
                                                         1.453920      -2.617970
                                                         0.614053      -0.580920
                                                         0.232656      -0.044277
                                                         0.074788      -0.004674
                          1       5    5dxz              2.521825       1.209017
                                                         1.453920      -2.617970
                                                         0.614053      -0.580920
                                                         0.232656      -0.044277
                                                         0.074788      -0.004674
                          1       5    5dy2              2.521825       0.698026
                                                         1.453920      -1.511486
                                                         0.614053      -0.335394
                                                         0.232656      -0.025564
                                                         0.074788      -0.002699
                          1       5    5dyz              2.521825       1.209017
                                                         1.453920      -2.617970
                                                         0.614053      -0.580920
                                                         0.232656      -0.044277
                                                         0.074788      -0.004674
                          1       5    5dz2              2.521825       0.698026
                                                         1.453920      -1.511486
                                                         0.614053      -0.335394
                                                         0.232656      -0.025564
                                                         0.074788      -0.002699

                          1       6    6dx2              2.521825       0.831079
                                                         1.453920      -0.709226
                                                         0.614053      -0.137351
                                                         0.232656       0.068642
                                                         0.074788       0.011745
                          1       6    6dxy              2.521825       1.439472
                                                         1.453920      -1.228415
                                                         0.614053      -0.237899
                                                         0.232656       0.118891
                                                         0.074788       0.020343
                          1       6    6dxz              2.521825       1.439472
                                                         1.453920      -1.228415
                                                         0.614053      -0.237899
                                                         0.232656       0.118891
                                                         0.074788       0.020343
                          1       6    6dy2              2.521825       0.831079
                                                         1.453920      -0.709226
                                                         0.614053      -0.137351
                                                         0.232656       0.068642
                                                         0.074788       0.011745
                          1       6    6dyz              2.521825       1.439472
                                                         1.453920      -1.228415
                                                         0.614053      -0.237899
                                                         0.232656       0.118891
                                                         0.074788       0.020343
                          1       6    6dz2              2.521825       0.831079
                                                         1.453920      -0.709226
                                                         0.614053      -0.137351
                                                         0.232656       0.068642
                                                         0.074788       0.011745

       Atomic covalent radius [Angstrom]:                                  1.300

       Atomic van der Waals radius [Angstrom]:                             1.750

     GTH Potential information for                                   GTH-PBE-q10

       Description:                       Goedecker-Teter-Hutter pseudopotential
                                           Goedecker et al., PRB 54, 1703 (1996)
                                          Hartwigsen et al., PRB 58, 3641 (1998)
                                                      Krack, TCA 114, 145 (2005)

       Gaussian exponent of the core charge distribution:               1.317676
       Electronic configuration (s p d ...):                           1   0   9

       Parameters of the local part of the GTH pseudopotential:

                          rloc        C1          C2          C3          C4
                        0.616000   11.313635

       Parameters of the non-local part of the GTH pseudopotential:

                   l      r(l)      h(i,j,l)

                   0    0.550904    4.733491   -1.784594
                                   -1.784594    2.303901
                   1    0.674138    2.534798   -1.778066
                                   -1.778066    2.103836
                   2    0.457392   -7.264011    2.558665
                                    2.558665   -2.901253

  2. Atomic kind: O                                     Number of atoms:       1

     Orbital Basis Set                                        DZVP-MOLOPT-SR-GTH

       Number of orbital shell sets:                                           1
       Number of orbital shells:                                               5
       Number of primitive Cartesian functions:                                5
       Number of Cartesian basis functions:                                   14
       Number of spherical basis functions:                                   13
       Norm type:                                                              2

       Normalised Cartesian orbitals:

                        Set   Shell   Orbital            Exponent    Coefficient

                          1       1    2s               10.389228       0.396646
                                                         3.849621       0.208811
                                                         1.388401      -0.301641
                                                         0.496955      -0.274061
                                                         0.162492      -0.033677

                          1       2    3s               10.389228       0.303673
                                                         3.849621       0.240943
                                                         1.388401      -0.313066
                                                         0.496955      -0.043055
                                                         0.162492       0.213991

                          1       3    3px              10.389228      -1.530415
                                                         3.849621      -1.371928
                                                         1.388401      -0.761951
                                                         0.496955      -0.253695
                                                         0.162492      -0.035541
                          1       3    3py              10.389228      -1.530415
                                                         3.849621      -1.371928
                                                         1.388401      -0.761951
                                                         0.496955      -0.253695
                                                         0.162492      -0.035541
                          1       3    3pz              10.389228      -1.530415
                                                         3.849621      -1.371928
                                                         1.388401      -0.761951
                                                         0.496955      -0.253695
                                                         0.162492      -0.035541

                          1       4    4px              10.389228      -0.565392
                                                         3.849621      -0.038231
                                                         1.388401      -0.382373
                                                         0.496955       0.179070
                                                         0.162492       0.122714
                          1       4    4py              10.389228      -0.565392
                                                         3.849621      -0.038231
                                                         1.388401      -0.382373
                                                         0.496955       0.179070
                                                         0.162492       0.122714
                          1       4    4pz              10.389228      -0.565392
                                                         3.849621      -0.038231
                                                         1.388401      -0.382373
                                                         0.496955       0.179070
                                                         0.162492       0.122714

                          1       5    4dx2             10.389228       1.867377
                                                         3.849621       0.670994
                                                         1.388401       1.353441
                                                         0.496955       0.273538
                                                         0.162492       0.006620
                          1       5    4dxy             10.389228       3.234392
                                                         3.849621       1.162195
                                                         1.388401       2.344229
                                                         0.496955       0.473781
                                                         0.162492       0.011466
                          1       5    4dxz             10.389228       3.234392
                                                         3.849621       1.162195
                                                         1.388401       2.344229
                                                         0.496955       0.473781
                                                         0.162492       0.011466
                          1       5    4dy2             10.389228       1.867377
                                                         3.849621       0.670994
                                                         1.388401       1.353441
                                                         0.496955       0.273538
                                                         0.162492       0.006620
                          1       5    4dyz             10.389228       3.234392
                                                         3.849621       1.162195
                                                         1.388401       2.344229
                                                         0.496955       0.473781
                                                         0.162492       0.011466
                          1       5    4dz2             10.389228       1.867377
                                                         3.849621       0.670994
                                                         1.388401       1.353441
                                                         0.496955       0.273538
                                                         0.162492       0.006620

       Atomic covalent radius [Angstrom]:                                  0.730

       Atomic van der Waals radius [Angstrom]:                             1.520

     GTH Potential information for                                    GTH-PBE-q6

       Description:                       Goedecker-Teter-Hutter pseudopotential
                                           Goedecker et al., PRB 54, 1703 (1996)
                                          Hartwigsen et al., PRB 58, 3641 (1998)
                                                      Krack, TCA 114, 145 (2005)

       Gaussian exponent of the core charge distribution:               8.360253
       Electronic configuration (s p d ...):                               2   4

       Parameters of the local part of the GTH pseudopotential:

                          rloc        C1          C2          C3          C4
                        0.244554  -16.667215    2.487311

       Parameters of the non-local part of the GTH pseudopotential:

                   l      r(l)      h(i,j,l)

                   0    0.220956   18.337458
                   1    0.211332

  3. Atomic kind: H                                     Number of atoms:       2

     Orbital Basis Set                                        DZVP-MOLOPT-SR-GTH

       Number of orbital shell sets:                                           1
       Number of orbital shells:                                               3
       Number of primitive Cartesian functions:                                5
       Number of Cartesian basis functions:                                    5
       Number of spherical basis functions:                                    5
       Norm type:                                                              2

       Normalised Cartesian orbitals:

                        Set   Shell   Orbital            Exponent    Coefficient

                          1       1    2s               10.068468      -0.133023
                                                         2.680223      -0.177618
                                                         0.791502      -0.258419
                                                         0.239116      -0.107525
                                                         0.082193      -0.014019

                          1       2    3s               10.068468       0.344673
                                                         2.680223       1.819821
                                                         0.791502      -0.999069
                                                         0.239116       0.017430
                                                         0.082193       0.082660

                          1       3    3px              10.068468       0.155326
                                                         2.680223       0.367157
                                                         0.791502       0.311480
                                                         0.239116       0.080105
                                                         0.082193       0.033440
                          1       3    3py              10.068468       0.155326
                                                         2.680223       0.367157
                                                         0.791502       0.311480
                                                         0.239116       0.080105
                                                         0.082193       0.033440
                          1       3    3pz              10.068468       0.155326
                                                         2.680223       0.367157
                                                         0.791502       0.311480
                                                         0.239116       0.080105
                                                         0.082193       0.033440

       Atomic covalent radius [Angstrom]:                                  0.320

       Atomic van der Waals radius [Angstrom]:                             1.090

     GTH Potential information for                                    GTH-PBE-q1

       Description:                       Goedecker-Teter-Hutter pseudopotential
                                           Goedecker et al., PRB 54, 1703 (1996)
                                          Hartwigsen et al., PRB 58, 3641 (1998)
                                                      Krack, TCA 114, 145 (2005)

       Gaussian exponent of the core charge distribution:              12.500000
       Electronic configuration (s p d ...):                                   1

       Parameters of the local part of the GTH pseudopotential:

                          rloc        C1          C2          C3          C4
                        0.200000   -4.178900    0.724463


 MOLECULE KIND INFORMATION


 All atoms are their own molecule, skipping detailed information


 TOTAL NUMBERS AND MAXIMUM NUMBERS

  Total number of            - Atomic kinds:                                   3
                             - Atoms:                                         99
                             - Shell sets:                                    99
                             - Shells:                                       587
                             - Primitive Cartesian functions:                495
                             - Cartesian basis functions:                   2232
                             - Spherical basis functions:                   1943

  Maximum angular momentum of- Orbital basis functions:                        2
                             - Local part of the GTH pseudopotential:          2
                             - Non-local part of the GTH pseudopotential:      4


 MODULE QUICKSTEP:  ATOMIC COORDINATES IN angstrom

 Atom  Kind  Element       X           Y           Z          Z(eff)       Mass
    1   1 Pt  78       0.085365   -0.019464   20.325031      10.0000    195.0840
    2   1 Pt  78       2.887411    0.073801   20.328831      10.0000    195.0840
    3   1 Pt  78       5.710130    0.050102   20.378804      10.0000    195.0840
    4   1 Pt  78       8.545097    0.201211   20.443252      10.0000    195.0840
    5   1 Pt  78      -0.128901    2.823237   20.441813      10.0000    195.0840
    6   1 Pt  78       2.682507    2.870114   20.374250      10.0000    195.0840
    7   1 Pt  78       5.637302    2.961250   20.310228      10.0000    195.0840
    8   1 Pt  78       8.434294    2.936137   20.274721      10.0000    195.0840
    9   1 Pt  78      -0.220258    5.640116   20.341690      10.0000    195.0840
   10   1 Pt  78       2.779996    5.635588   20.315286      10.0000    195.0840
   11   1 Pt  78       5.542787    5.708510   20.433124      10.0000    195.0840
   12   1 Pt  78       8.342691    5.730309   20.308729      10.0000    195.0840
   13   1 Pt  78      -0.058547    8.419825   20.395257      10.0000    195.0840
   14   1 Pt  78       2.809953    8.420572   20.400708      10.0000    195.0840
   15   1 Pt  78       5.571483    8.430414   20.242091      10.0000    195.0840
   16   1 Pt  78       8.324968    8.556336   20.326986      10.0000    195.0840
   17   1 Pt  78       1.405602    1.405602   18.293961      10.0000    195.0840
   18   1 Pt  78       4.217105    1.405602   18.293967      10.0000    195.0840
   19   1 Pt  78       7.028565    1.405601   18.293971      10.0000    195.0840
   20   1 Pt  78       9.840069    1.405602   18.293957      10.0000    195.0840
   21   1 Pt  78       1.405602    4.217105   18.293967      10.0000    195.0840
   22   1 Pt  78       4.217105    4.217105   18.293976      10.0000    195.0840
   23   1 Pt  78       7.028565    4.217104   18.293980      10.0000    195.0840
   24   1 Pt  78       9.840069    4.217104   18.293963      10.0000    195.0840
   25   1 Pt  78       1.405601    7.028565   18.293971      10.0000    195.0840
   26   1 Pt  78       4.217104    7.028565   18.293980      10.0000    195.0840
   27   1 Pt  78       7.028564    7.028564   18.293984      10.0000    195.0840
   28   1 Pt  78       9.840069    7.028565   18.293967      10.0000    195.0840
   29   1 Pt  78       1.405602    9.840069   18.293957      10.0000    195.0840
   30   1 Pt  78       4.217104    9.840069   18.293963      10.0000    195.0840
   31   1 Pt  78       7.028565    9.840069   18.293967      10.0000    195.0840
   32   1 Pt  78       9.840069    9.840069   18.293953      10.0000    195.0840
   33   1 Pt  78      -0.000142   -0.000142   16.262806      10.0000    195.0840
   34   1 Pt  78       2.811380   -0.000142   16.262809      10.0000    195.0840
   35   1 Pt  78       5.622857   -0.000142   16.262805      10.0000    195.0840
   36   1 Pt  78       8.434327   -0.000142   16.262809      10.0000    195.0840
   37   1 Pt  78      -0.000142    2.811380   16.262809      10.0000    195.0840
   38   1 Pt  78       2.811381    2.811381   16.262819      10.0000    195.0840
   39   1 Pt  78       5.622857    2.811380   16.262817      10.0000    195.0840
   40   1 Pt  78       8.434326    2.811380   16.262819      10.0000    195.0840
   41   1 Pt  78      -0.000142    5.622857   16.262805      10.0000    195.0840
   42   1 Pt  78       2.811380    5.622857   16.262817      10.0000    195.0840
   43   1 Pt  78       5.622857    5.622857   16.262816      10.0000    195.0840
   44   1 Pt  78       8.434326    5.622857   16.262817      10.0000    195.0840
   45   1 Pt  78      -0.000142    8.434327   16.262809      10.0000    195.0840
   46   1 Pt  78       2.811380    8.434326   16.262819      10.0000    195.0840
   47   1 Pt  78       5.622857    8.434326   16.262817      10.0000    195.0840
   48   1 Pt  78       8.434326    8.434326   16.262819      10.0000    195.0840
   49   1 Pt  78       1.405658    1.405658   14.212290      10.0000    195.0840
   50   1 Pt  78       4.217157    1.405664   14.212290      10.0000    195.0840
   51   1 Pt  78       7.028632    1.405663   14.212286      10.0000    195.0840
   52   1 Pt  78       9.840133    1.405658   14.212297      10.0000    195.0840
   53   1 Pt  78       1.405664    4.217157   14.212290      10.0000    195.0840
   54   1 Pt  78       4.217160    4.217160   14.212294      10.0000    195.0840
   55   1 Pt  78       7.028630    4.217159   14.212286      10.0000    195.0840
   56   1 Pt  78       9.840127    4.217157   14.212297      10.0000    195.0840
   57   1 Pt  78       1.405663    7.028632   14.212286      10.0000    195.0840
   58   1 Pt  78       4.217159    7.028630   14.212286      10.0000    195.0840
   59   1 Pt  78       7.028629    7.028629   14.212282      10.0000    195.0840
   60   1 Pt  78       9.840126    7.028632   14.212290      10.0000    195.0840
   61   1 Pt  78       1.405658    9.840133   14.212297      10.0000    195.0840
   62   1 Pt  78       4.217157    9.840127   14.212297      10.0000    195.0840
   63   1 Pt  78       7.028632    9.840126   14.212290      10.0000    195.0840
   64   1 Pt  78       9.840133    9.840133   14.212305      10.0000    195.0840
   65   1 Pt  78      -0.000086   -0.000086   12.181158      10.0000    195.0840
   66   1 Pt  78       2.811450   -0.000086   12.181147      10.0000    195.0840
   67   1 Pt  78       5.622912   -0.000086   12.181143      10.0000    195.0840
   68   1 Pt  78       8.434383   -0.000086   12.181147      10.0000    195.0840
   69   1 Pt  78      -0.000086    2.811450   12.181147      10.0000    195.0840
   70   1 Pt  78       2.811450    2.811450   12.181131      10.0000    195.0840
   71   1 Pt  78       5.622913    2.811451   12.181124      10.0000    195.0840
   72   1 Pt  78       8.434384    2.811450   12.181131      10.0000    195.0840
   73   1 Pt  78      -0.000086    5.622912   12.181143      10.0000    195.0840
   74   1 Pt  78       2.811451    5.622913   12.181124      10.0000    195.0840
   75   1 Pt  78       5.622913    5.622913   12.181120      10.0000    195.0840
   76   1 Pt  78       8.434382    5.622912   12.181124      10.0000    195.0840
   77   1 Pt  78      -0.000086    8.434383   12.181147      10.0000    195.0840
   78   1 Pt  78       2.811450    8.434384   12.181131      10.0000    195.0840
   79   1 Pt  78       5.622912    8.434382   12.181124      10.0000    195.0840
   80   1 Pt  78       8.434384    8.434384   12.181135      10.0000    195.0840
   81   1 Pt  78       1.440932    1.464969   10.092329      10.0000    195.0840
   82   1 Pt  78       4.341275    1.379192   10.085852      10.0000    195.0840
   83   1 Pt  78       7.036717    1.174073   10.084141      10.0000    195.0840
   84   1 Pt  78       9.960218    1.182910   10.042799      10.0000    195.0840
   85   1 Pt  78       1.475008    4.180299   10.142792      10.0000    195.0840
   86   1 Pt  78       4.361536    4.159081   10.059036      10.0000    195.0840
   87   1 Pt  78       7.154957    3.929366   10.118679      10.0000    195.0840
   88   1 Pt  78       9.952796    4.169084   10.057484      10.0000    195.0840
   89   1 Pt  78       1.420112    6.945943   10.118406      10.0000    195.0840
   90   1 Pt  78       4.245733    6.910166   10.067520      10.0000    195.0840
   91   1 Pt  78       6.960781    6.804935   10.210436      10.0000    195.0840
   92   1 Pt  78       9.814270    6.858699   10.000000      10.0000    195.0840
   93   1 Pt  78       1.429740    9.815538   10.144791      10.0000    195.0840
   94   1 Pt  78       4.262175    9.635976   10.187866      10.0000    195.0840
   95   1 Pt  78       6.993870    9.637695   10.100820      10.0000    195.0840
   96   1 Pt  78       9.699634    9.636541   10.078758      10.0000    195.0840
   97   2 O    8      10.039041    9.226273   23.569014       6.0000     15.9994
   98   3 H    1      10.982121    9.195232   23.712974       1.0000      1.0079
   99   3 H    1       9.874184    9.767919   22.711010       1.0000      1.0079




 SCF PARAMETERS         Density guess:                                   RESTART
                        --------------------------------------------------------
                        max_scf:                                             500
                        max_scf_history:                                       0
                        max_diis:                                              4
                        --------------------------------------------------------
                        eps_scf:                                        1.00E-06
                        eps_scf_history:                                0.00E+00
                        eps_diis:                                       1.00E-01
                        eps_eigval:                                     1.00E-05
                        --------------------------------------------------------
                        level_shift [a.u.]:                                 0.00
                        added MOs                                       500    0
                        --------------------------------------------------------
                        Mixing method:                            BROYDEN_MIXING
                                                charge density mixing in g-space
                        --------------------------------------------------------
                        Smear method:                                FERMI_DIRAC
                        Electronic temperature [K]:                        300.0
                        Electronic temperature [a.u.]:                  9.50E-04
                        Accuracy threshold:                             1.00E-10
                        --------------------------------------------------------
                        No outer SCF

 PW_GRID| Information for grid number                                          1
 PW_GRID| Grid distributed over                                    32 processors
 PW_GRID| Real space group dimensions                                    32    1
 PW_GRID| the grid is blocked:                                                NO
 PW_GRID| Cutoff [a.u.]                                                    200.0
 PW_GRID| spherical cutoff:                                                   NO
 PW_GRID|   Bounds   1            -67      67                Points:         135
 PW_GRID|   Bounds   2            -67      67                Points:         135
 PW_GRID|   Bounds   3           -288     287                Points:         576
 PW_GRID| Volume element (a.u.^3)  0.3735E-02     Volume (a.u.^3)     39208.8185
 PW_GRID| Grid span                                                    FULLSPACE
 PW_GRID|   Distribution                         Average         Max         Min
 PW_GRID|   G-Vectors                           328050.0      328050      328050
 PW_GRID|   G-Rays                                2430.0        2430        2430
 PW_GRID|   Real Space Points                   328050.0      388800      311040

 PW_GRID| Information for grid number                                          2
 PW_GRID| Number of the reference grid                                         1
 PW_GRID| Grid distributed over                                    32 processors
 PW_GRID| Real space group dimensions                                    32    1
 PW_GRID| the grid is blocked:                                                NO
 PW_GRID| Cutoff [a.u.]                                                     66.7
 PW_GRID| spherical cutoff:                                                   NO
 PW_GRID|   Bounds   1            -40      39                Points:          80
 PW_GRID|   Bounds   2            -40      39                Points:          80
 PW_GRID|   Bounds   3           -160     159                Points:         320
 PW_GRID| Volume element (a.u.^3)  0.1914E-01     Volume (a.u.^3)     39208.8185
 PW_GRID| Grid span                                                    FULLSPACE
 PW_GRID|   Distribution                         Average         Max         Min
 PW_GRID|   G-Vectors                            64000.0       64880       63520
 PW_GRID|   G-Rays                                 800.0         811         794
 PW_GRID|   Real Space Points                    64000.0       76800       51200

 PW_GRID| Information for grid number                                          3
 PW_GRID| Number of the reference grid                                         1
 PW_GRID| Grid distributed over                                    32 processors
 PW_GRID| Real space group dimensions                                    32    1
 PW_GRID| the grid is blocked:                                                NO
 PW_GRID| Cutoff [a.u.]                                                     22.2
 PW_GRID| spherical cutoff:                                                   NO
 PW_GRID|   Bounds   1            -22      22                Points:          45
 PW_GRID|   Bounds   2            -22      22                Points:          45
 PW_GRID|   Bounds   3            -96      95                Points:         192
 PW_GRID| Volume element (a.u.^3)  0.1008         Volume (a.u.^3)     39208.8185
 PW_GRID| Grid span                                                    FULLSPACE
 PW_GRID|   Distribution                         Average         Max         Min
 PW_GRID|   G-Vectors                            12150.0       12375       11745
 PW_GRID|   G-Rays                                 270.0         275         261
 PW_GRID|   Real Space Points                    12150.0       17280        8640

 PW_GRID| Information for grid number                                          4
 PW_GRID| Number of the reference grid                                         1
 PW_GRID| Grid distributed over                                    32 processors
 PW_GRID| Real space group dimensions                                     4    8
 PW_GRID| the grid is blocked:                                                NO
 PW_GRID| Cutoff [a.u.]                                                      7.4
 PW_GRID| spherical cutoff:                                                   NO
 PW_GRID|   Bounds   1            -13      13                Points:          27
 PW_GRID|   Bounds   2            -13      13                Points:          27
 PW_GRID|   Bounds   3            -54      53                Points:         108
 PW_GRID| Volume element (a.u.^3)  0.4980         Volume (a.u.^3)     39208.8185
 PW_GRID| Grid span                                                    FULLSPACE
 PW_GRID|   Distribution                         Average         Max         Min
 PW_GRID|   G-Vectors                             2460.4        2592        2349
 PW_GRID|   G-Rays                                  91.1          96          87
 PW_GRID|   Real Space Points                     2460.4        3024        1944

 POISSON| Solver                                                        PERIODIC
 POISSON| Periodicity                                                        XYZ

 RS_GRID| Information for grid number                                          1
 RS_GRID|   Bounds   1            -67      67                Points:         135
 RS_GRID|   Bounds   2            -67      67                Points:         135
 RS_GRID|   Bounds   3           -288     287                Points:         576
 RS_GRID| Real space distribution over                                 32 groups
 RS_GRID| Real space distribution along direction                              3
 RS_GRID| Border size                                                         35
 RS_GRID|   Distribution                         Average         Max         Min
 RS_GRID|   Planes                                  88.0          88          88

 RS_GRID| Information for grid number                                          2
 RS_GRID|   Bounds   1            -40      39                Points:          80
 RS_GRID|   Bounds   2            -40      39                Points:          80
 RS_GRID|   Bounds   3           -160     159                Points:         320
 RS_GRID| Real space distribution over                                 32 groups
 RS_GRID| Real space distribution along direction                              3
 RS_GRID| Border size                                                         23
 RS_GRID|   Distribution                         Average         Max         Min
 RS_GRID|   Planes                                  56.0          56          56

 RS_GRID| Information for grid number                                          3
 RS_GRID|   Bounds   1            -22      22                Points:          45
 RS_GRID|   Bounds   2            -22      22                Points:          45
 RS_GRID|   Bounds   3            -96      95                Points:         192
 RS_GRID| Real space fully replicated
 RS_GRID| Group size                                                           1

 RS_GRID| Information for grid number                                          4
 RS_GRID|   Bounds   1            -13      13                Points:          27
 RS_GRID|   Bounds   2            -13      13                Points:          27
 RS_GRID|   Bounds   3            -54      53                Points:         108
 RS_GRID| Real space fully replicated
 RS_GRID| Group size                                                           1

 Number of electrons:                                                        968
 Number of occupied orbitals:                                                484
 Number of molecular orbitals:                                               984

 Number of orbital functions:                                               1943
 Number of independent orbital functions:                                   1943

 Extrapolation method: initial_guess

 *** WARNING in qs_initial_guess.F:309 :: User requested to restart the    ***
 *** wavefunction from the file named: cp2k-RESTART.wfn. This file does    ***
 *** not exist. Please check the existence of the file or change properly  ***
 *** the value of the keyword WFN_RESTART_FILE_NAME. Calculation continues ***
 *** using ATOMIC GUESS.                                                   ***


 Atomic guess: The first density matrix is obtained in terms of atomic orbitals
               and electronic configurations assigned to each atomic kind

 Guess for atomic kind: Pt

 Electronic structure
    Total number of core electrons                                         68.00
    Total number of valence electrons                                      10.00
    Total number of electrons                                              78.00
    Multiplicity                                                   not specified
    S   [  2.00  2.00  2.00  2.00  2.00] 1.00
    P   [  6.00  6.00  6.00  6.00]
    D   [ 10.00 10.00] 9.00
    F   [ 14.00]


 *******************************************************************************
                  Iteration          Convergence                     Energy [au]
 *******************************************************************************
                          1         2.31440                     -25.408827593796
                          2         1.51653                     -25.553485547781
                          3        0.756718E-01                 -25.848084769772
                          4        0.846688E-02                 -25.848827784449
                          5        0.789087E-04                 -25.848836001288
                          6        0.389389E-04                 -25.848836001863
                          7        0.125193E-06                 -25.848836002049

 Energy components [Hartree]           Total Energy ::          -25.848836002049
                                        Band Energy ::           -2.040347634071
                                     Kinetic Energy ::           20.020057968093
                                   Potential Energy ::          -45.868893970142
                                      Virial (-V/T) ::            2.291146910925
                                        Core Energy ::          -46.706460602493
                                          XC Energy ::           -4.268953034213
                                     Coulomb Energy ::           25.126577634658
                       Total Pseudopotential Energy ::          -66.819945130261
                       Local Pseudopotential Energy ::          -50.953816608059
                    Nonlocal Pseudopotential Energy ::          -15.866128522202
                                        Confinement ::            0.934265596747

 Orbital energies  State     L     Occupation   Energy[a.u.]          Energy[eV]

                       1     0          1.000      -0.180914           -4.922914

                       1     2          9.000      -0.206604           -5.621974


 Total Electron Density at R=0:                                         0.000036

 Guess for atomic kind: O

 Electronic structure
    Total number of core electrons                                          2.00
    Total number of valence electrons                                       6.00
    Total number of electrons                                               8.00
    Multiplicity                                                   not specified
    S   [  2.00] 2.00
    P      4.00


 *******************************************************************************
                  Iteration          Convergence                     Energy [au]
 *******************************************************************************
                          1        0.702811                     -15.577904332270
                          2        0.612408                     -15.588447180504
                          3        0.955344E-02                 -15.655871208406
                          4        0.223754E-02                 -15.655885053552
                          5        0.157183E-02                 -15.655885461027
                          6        0.124953E-02                 -15.655885607150
                          7        0.312011E-06                 -15.655885858066

 Energy components [Hartree]           Total Energy ::          -15.655885858066
                                        Band Energy ::           -2.983128125584
                                     Kinetic Energy ::           11.754765134683
                                   Potential Energy ::          -27.410650992750
                                      Virial (-V/T) ::            2.331875684345
                                        Core Energy ::          -26.153522949072
                                          XC Energy ::           -3.157392363346
                                     Coulomb Energy ::           13.655029454351
                       Total Pseudopotential Energy ::          -37.943026860963
                       Local Pseudopotential Energy ::          -39.220419683052
                    Nonlocal Pseudopotential Energy ::            1.277392822089
                                        Confinement ::            0.347387772086

 Orbital energies  State     L     Occupation   Energy[a.u.]          Energy[eV]

                       1     0          2.000      -0.861522          -23.443215

                       1     1          4.000      -0.315021           -8.572154


 Total Electron Density at R=0:                                         0.000093

 Guess for atomic kind: H

 Electronic structure
    Total number of core electrons                                          0.00
    Total number of valence electrons                                       1.00
    Total number of electrons                                               1.00
    Multiplicity                                                   not specified
    S      1.00


 *******************************************************************************
                  Iteration          Convergence                     Energy [au]
 *******************************************************************************
                          1        0.250972E-02                  -0.375256815885
                          2        0.570752E-04                  -0.375258666164
                          3        0.832405E-09                  -0.375258667122

 Energy components [Hartree]           Total Energy ::           -0.375258667122
                                        Band Energy ::           -0.076317618391
                                     Kinetic Energy ::            0.771356566341
                                   Potential Energy ::           -1.146615233463
                                      Virial (-V/T) ::            1.486491829455
                                        Core Energy ::           -0.456090715790
                                          XC Energy ::           -0.314218627334
                                     Coulomb Energy ::            0.395050676003
                       Total Pseudopotential Energy ::           -1.238482237174
                       Local Pseudopotential Energy ::           -1.238482237174
                    Nonlocal Pseudopotential Energy ::            0.000000000000
                                        Confinement ::            0.110349550431

 Orbital energies  State     L     Occupation   Energy[a.u.]          Energy[eV]

                       1     0          1.000      -0.076318           -2.076708


 Total Electron Density at R=0:                                         0.425022
 Re-scaling the density matrix to get the right number of electrons
                  # Electrons              Trace(P)               Scaling factor
                          968               968.000                        1.000


 SCF WAVEFUNCTION OPTIMIZATION

  Step     Update method      Time    Convergence         Total energy    Change
  ------------------------------------------------------------------------------

 *** WARNING in fm/cp_fm_elpa.F:521 :: Setting real_kernel for ELPA failed ***

     1 NoMix/Diag. 0.30E+00    1.2     0.71961412     -2532.5586189174 -2.53E+03

 *** WARNING in fm/cp_fm_elpa.F:521 :: Setting real_kernel for ELPA failed ***

     2 Broy./Diag. 0.30E+00    1.7     0.25006153     -2606.4458083806 -7.39E+01

 *** WARNING in fm/cp_fm_elpa.F:521 :: Setting real_kernel for ELPA failed ***

     3 Broy./Diag. 0.30E+00    1.7     0.32991585     -2583.5822291376  2.29E+01

 *** WARNING in fm/cp_fm_elpa.F:521 :: Setting real_kernel for ELPA failed ***

     4 Broy./Diag. 0.30E+00    1.7     0.35681356     -2578.5616230648  5.02E+00

 *** WARNING in fm/cp_fm_elpa.F:521 :: Setting real_kernel for ELPA failed ***

     5 Broy./Diag. 0.30E+00    1.7     0.20184022     -2563.9818727866  1.46E+01

 *** WARNING in fm/cp_fm_elpa.F:521 :: Setting real_kernel for ELPA failed ***

     6 Broy./Diag. 0.30E+00    1.8     0.08037610     -2546.3256555513  1.77E+01

 *** WARNING in fm/cp_fm_elpa.F:521 :: Setting real_kernel for ELPA failed ***

     7 Broy./Diag. 0.30E+00    1.8     0.03118735     -2540.6730736697  5.65E+00

 *** WARNING in fm/cp_fm_elpa.F:521 :: Setting real_kernel for ELPA failed ***

     8 Broy./Diag. 0.30E+00    1.8     0.03184008     -2539.6405114744  1.03E+00

 *** WARNING in fm/cp_fm_elpa.F:521 :: Setting real_kernel for ELPA failed ***

     9 Broy./Diag. 0.30E+00    1.8     0.03351672     -2538.5253473613  1.12E+00

 *** WARNING in fm/cp_fm_elpa.F:521 :: Setting real_kernel for ELPA failed ***

    10 Broy./Diag. 0.30E+00    1.8     0.01263660     -2538.1270359218  3.98E-01

 *** WARNING in fm/cp_fm_elpa.F:521 :: Setting real_kernel for ELPA failed ***

    11 Broy./Diag. 0.30E+00    1.8     0.01200874     -2538.2288535129 -1.02E-01

 *** WARNING in fm/cp_fm_elpa.F:521 :: Setting real_kernel for ELPA failed ***

    12 Broy./Diag. 0.30E+00    1.8     0.01363914     -2538.1899807237  3.89E-02

 *** WARNING in fm/cp_fm_elpa.F:521 :: Setting real_kernel for ELPA failed ***

    13 Broy./Diag. 0.30E+00    1.8     0.00772168     -2538.1491488107  4.08E-02

 *** WARNING in fm/cp_fm_elpa.F:521 :: Setting real_kernel for ELPA failed ***

    14 Broy./Diag. 0.30E+00    1.8     0.00116854     -2538.1658165328 -1.67E-02

 *** WARNING in fm/cp_fm_elpa.F:521 :: Setting real_kernel for ELPA failed ***

    15 Broy./Diag. 0.30E+00    1.8     0.00514846     -2538.1679148729 -2.10E-03

 *** WARNING in fm/cp_fm_elpa.F:521 :: Setting real_kernel for ELPA failed ***

    16 Broy./Diag. 0.30E+00    1.8     0.01237077     -2538.1598076149  8.11E-03

 *** WARNING in fm/cp_fm_elpa.F:521 :: Setting real_kernel for ELPA failed ***

    17 Broy./Diag. 0.30E+00    1.8     0.01158329     -2538.1523865393  7.42E-03

 *** WARNING in fm/cp_fm_elpa.F:521 :: Setting real_kernel for ELPA failed ***

    18 Broy./Diag. 0.30E+00    1.8     0.00312483     -2538.1670133660 -1.46E-02

 *** WARNING in fm/cp_fm_elpa.F:521 :: Setting real_kernel for ELPA failed ***

    19 Broy./Diag. 0.30E+00    1.8     0.00188209     -2538.1535694866  1.34E-02

 *** WARNING in fm/cp_fm_elpa.F:521 :: Setting real_kernel for ELPA failed ***

    20 Broy./Diag. 0.30E+00    1.8     0.00613616     -2538.1478008947  5.77E-03

 *** WARNING in fm/cp_fm_elpa.F:521 :: Setting real_kernel for ELPA failed ***

    21 Broy./Diag. 0.30E+00    1.8     0.00127416     -2538.1442385403  3.56E-03

 *** WARNING in fm/cp_fm_elpa.F:521 :: Setting real_kernel for ELPA failed ***

    22 Broy./Diag. 0.30E+00    1.8     0.00129445     -2538.1437634673  4.75E-04

 *** WARNING in fm/cp_fm_elpa.F:521 :: Setting real_kernel for ELPA failed ***

    23 Broy./Diag. 0.30E+00    1.8     0.00094000     -2538.1497198728 -5.96E-03

 *** WARNING in fm/cp_fm_elpa.F:521 :: Setting real_kernel for ELPA failed ***

    24 Broy./Diag. 0.30E+00    1.8     0.00142300     -2538.1529368038 -3.22E-03

 *** WARNING in fm/cp_fm_elpa.F:521 :: Setting real_kernel for ELPA failed ***

    25 Broy./Diag. 0.30E+00    1.8     0.00273613     -2538.1546060520 -1.67E-03

 *** WARNING in fm/cp_fm_elpa.F:521 :: Setting real_kernel for ELPA failed ***

    26 Broy./Diag. 0.30E+00    1.8     0.01157088     -2538.1549086499 -3.03E-04

 *** WARNING in fm/cp_fm_elpa.F:521 :: Setting real_kernel for ELPA failed ***

    27 Broy./Diag. 0.30E+00    1.8     0.01456584     -2538.1486763693  6.23E-03

 *** WARNING in fm/cp_fm_elpa.F:521 :: Setting real_kernel for ELPA failed ***

    28 Broy./Diag. 0.30E+00    1.8     0.00095240     -2538.1542010329 -5.52E-03

 *** WARNING in fm/cp_fm_elpa.F:521 :: Setting real_kernel for ELPA failed ***

    29 Broy./Diag. 0.30E+00    1.8     0.00046543     -2538.1487666714  5.43E-03

 *** WARNING in fm/cp_fm_elpa.F:521 :: Setting real_kernel for ELPA failed ***

    30 Broy./Diag. 0.30E+00    1.8     0.00101868     -2538.1520574884 -3.29E-03

 *** WARNING in fm/cp_fm_elpa.F:521 :: Setting real_kernel for ELPA failed ***

    31 Broy./Diag. 0.30E+00    1.8     0.00131440     -2538.1516919455  3.66E-04

 *** WARNING in fm/cp_fm_elpa.F:521 :: Setting real_kernel for ELPA failed ***

    32 Broy./Diag. 0.30E+00    1.8     0.00125341     -2538.1503559347  1.34E-03

 *** WARNING in fm/cp_fm_elpa.F:521 :: Setting real_kernel for ELPA failed ***

    33 Broy./Diag. 0.30E+00    1.8     0.00097960     -2538.1493694766  9.86E-04

 *** WARNING in fm/cp_fm_elpa.F:521 :: Setting real_kernel for ELPA failed ***

    34 Broy./Diag. 0.30E+00    1.8     0.00022882     -2538.1483130110  1.06E-03

 *** WARNING in fm/cp_fm_elpa.F:521 :: Setting real_kernel for ELPA failed ***

    35 Broy./Diag. 0.30E+00    1.8     0.00069174     -2538.1469835331  1.33E-03

 *** WARNING in fm/cp_fm_elpa.F:521 :: Setting real_kernel for ELPA failed ***

    36 Broy./Diag. 0.30E+00    1.8     0.00078617     -2538.1469720729  1.15E-05

 *** WARNING in fm/cp_fm_elpa.F:521 :: Setting real_kernel for ELPA failed ***

    37 Broy./Diag. 0.30E+00    1.8     0.00069025     -2538.1457027978  1.27E-03

 *** WARNING in fm/cp_fm_elpa.F:521 :: Setting real_kernel for ELPA failed ***

    38 Broy./Diag. 0.30E+00    1.8     0.00148141     -2538.1462897483 -5.87E-04

 *** WARNING in fm/cp_fm_elpa.F:521 :: Setting real_kernel for ELPA failed ***

    39 Broy./Diag. 0.30E+00    1.8     0.00041365     -2538.1464457114 -1.56E-04

 *** WARNING in fm/cp_fm_elpa.F:521 :: Setting real_kernel for ELPA failed ***

    40 Broy./Diag. 0.30E+00    1.8     0.00070161     -2538.1466283733 -1.83E-04

 *** WARNING in fm/cp_fm_elpa.F:521 :: Setting real_kernel for ELPA failed ***

    41 Broy./Diag. 0.30E+00    1.8     0.00006400     -2538.1466549240 -2.66E-05

 *** WARNING in fm/cp_fm_elpa.F:521 :: Setting real_kernel for ELPA failed ***

    42 Broy./Diag. 0.30E+00    1.8     0.00010944     -2538.1472092044 -5.54E-04

 *** WARNING in fm/cp_fm_elpa.F:521 :: Setting real_kernel for ELPA failed ***

    43 Broy./Diag. 0.30E+00    1.8     0.00162455     -2538.1471429649  6.62E-05

 *** WARNING in fm/cp_fm_elpa.F:521 :: Setting real_kernel for ELPA failed ***

    44 Broy./Diag. 0.30E+00    1.8     0.00275422     -2538.1473910981 -2.48E-04

 *** WARNING in fm/cp_fm_elpa.F:521 :: Setting real_kernel for ELPA failed ***

    45 Broy./Diag. 0.30E+00    1.8     0.00262378     -2538.1478449691 -4.54E-04

 *** WARNING in fm/cp_fm_elpa.F:521 :: Setting real_kernel for ELPA failed ***

    46 Broy./Diag. 0.30E+00    1.8     0.00202617     -2538.1472575149  5.87E-04

 *** WARNING in fm/cp_fm_elpa.F:521 :: Setting real_kernel for ELPA failed ***

    47 Broy./Diag. 0.30E+00    1.8     0.00005880     -2538.1477879160 -5.30E-04

 *** WARNING in fm/cp_fm_elpa.F:521 :: Setting real_kernel for ELPA failed ***

    48 Broy./Diag. 0.30E+00    1.8     0.00117771     -2538.1473445669  4.43E-04

 *** WARNING in fm/cp_fm_elpa.F:521 :: Setting real_kernel for ELPA failed ***

    49 Broy./Diag. 0.30E+00    1.8     0.00057535     -2538.1474608342 -1.16E-04

 *** WARNING in fm/cp_fm_elpa.F:521 :: Setting real_kernel for ELPA failed ***

    50 Broy./Diag. 0.30E+00    1.8     0.00053127     -2538.1475520157 -9.12E-05

 *** WARNING in fm/cp_fm_elpa.F:521 :: Setting real_kernel for ELPA failed ***

    51 Broy./Diag. 0.30E+00    1.8     0.00060380     -2538.1475224952  2.95E-05

 *** WARNING in fm/cp_fm_elpa.F:521 :: Setting real_kernel for ELPA failed ***

    52 Broy./Diag. 0.30E+00    1.8     0.00022924     -2538.1474405821  8.19E-05

 *** WARNING in fm/cp_fm_elpa.F:521 :: Setting real_kernel for ELPA failed ***

    53 Broy./Diag. 0.30E+00    1.8     0.00054964     -2538.1474371025  3.48E-06

 *** WARNING in fm/cp_fm_elpa.F:521 :: Setting real_kernel for ELPA failed ***

    54 Broy./Diag. 0.30E+00    1.8     0.00082897     -2538.1473919477  4.52E-05

 *** WARNING in fm/cp_fm_elpa.F:521 :: Setting real_kernel for ELPA failed ***

    55 Broy./Diag. 0.30E+00    1.8     0.00056998     -2538.1475542625 -1.62E-04

 *** WARNING in fm/cp_fm_elpa.F:521 :: Setting real_kernel for ELPA failed ***

    56 Broy./Diag. 0.30E+00    1.8     0.00024907     -2538.1472439596  3.10E-04

 *** WARNING in fm/cp_fm_elpa.F:521 :: Setting real_kernel for ELPA failed ***

    57 Broy./Diag. 0.30E+00    1.8     0.00006544     -2538.1474914997 -2.48E-04

 *** WARNING in fm/cp_fm_elpa.F:521 :: Setting real_kernel for ELPA failed ***

    58 Broy./Diag. 0.30E+00    1.8     0.00004437     -2538.1472716428  2.20E-04

 *** WARNING in fm/cp_fm_elpa.F:521 :: Setting real_kernel for ELPA failed ***

    59 Broy./Diag. 0.30E+00    1.8     0.00037664     -2538.1474559394 -1.84E-04

 *** WARNING in fm/cp_fm_elpa.F:521 :: Setting real_kernel for ELPA failed ***

    60 Broy./Diag. 0.30E+00    1.8     0.00001832     -2538.1473980264  5.79E-05

 *** WARNING in fm/cp_fm_elpa.F:521 :: Setting real_kernel for ELPA failed ***

    61 Broy./Diag. 0.30E+00    1.8     0.00050693     -2538.1474424036 -4.44E-05

 *** WARNING in fm/cp_fm_elpa.F:521 :: Setting real_kernel for ELPA failed ***

    62 Broy./Diag. 0.30E+00    1.8     0.00061100     -2538.1473195086  1.23E-04

 *** WARNING in fm/cp_fm_elpa.F:521 :: Setting real_kernel for ELPA failed ***

    63 Broy./Diag. 0.30E+00    1.8     0.00045539     -2538.1473742607 -5.48E-05

 *** WARNING in fm/cp_fm_elpa.F:521 :: Setting real_kernel for ELPA failed ***

    64 Broy./Diag. 0.30E+00    1.8     0.00102392     -2538.1473118004  6.25E-05

 *** WARNING in fm/cp_fm_elpa.F:521 :: Setting real_kernel for ELPA failed ***

    65 Broy./Diag. 0.30E+00    1.8     0.00116255     -2538.1473569043 -4.51E-05

 *** WARNING in fm/cp_fm_elpa.F:521 :: Setting real_kernel for ELPA failed ***

    66 Broy./Diag. 0.30E+00    1.8     0.00016147     -2538.1472399751  1.17E-04

 *** WARNING in fm/cp_fm_elpa.F:521 :: Setting real_kernel for ELPA failed ***

    67 Broy./Diag. 0.30E+00    1.8     0.00010971     -2538.1472649650 -2.50E-05

 *** WARNING in fm/cp_fm_elpa.F:521 :: Setting real_kernel for ELPA failed ***

    68 Broy./Diag. 0.30E+00    1.8     0.00001316     -2538.1473700029 -1.05E-04

 *** WARNING in fm/cp_fm_elpa.F:521 :: Setting real_kernel for ELPA failed ***

    69 Broy./Diag. 0.30E+00    1.8     0.00003333     -2538.1472553733  1.15E-04

 *** WARNING in fm/cp_fm_elpa.F:521 :: Setting real_kernel for ELPA failed ***

    70 Broy./Diag. 0.30E+00    1.8     0.00024471     -2538.1473525098 -9.71E-05

 *** WARNING in fm/cp_fm_elpa.F:521 :: Setting real_kernel for ELPA failed ***

    71 Broy./Diag. 0.30E+00    1.8     0.00023307     -2538.1473461709  6.34E-06

 *** WARNING in fm/cp_fm_elpa.F:521 :: Setting real_kernel for ELPA failed ***

    72 Broy./Diag. 0.30E+00    1.8     0.00031990     -2538.1473558236 -9.65E-06

 *** WARNING in fm/cp_fm_elpa.F:521 :: Setting real_kernel for ELPA failed ***

    73 Broy./Diag. 0.30E+00    1.8     0.00007781     -2538.1473418001  1.40E-05

 *** WARNING in fm/cp_fm_elpa.F:521 :: Setting real_kernel for ELPA failed ***

    74 Broy./Diag. 0.30E+00    1.8     0.00005464     -2538.1473534972 -1.17E-05

 *** WARNING in fm/cp_fm_elpa.F:521 :: Setting real_kernel for ELPA failed ***

    75 Broy./Diag. 0.30E+00    1.8     0.00010182     -2538.1473059931  4.75E-05

 *** WARNING in fm/cp_fm_elpa.F:521 :: Setting real_kernel for ELPA failed ***

    76 Broy./Diag. 0.30E+00    1.8     0.00019574     -2538.1473262872 -2.03E-05

 *** WARNING in fm/cp_fm_elpa.F:521 :: Setting real_kernel for ELPA failed ***

    77 Broy./Diag. 0.30E+00    1.8     0.00022398     -2538.1473170106  9.28E-06

 *** WARNING in fm/cp_fm_elpa.F:521 :: Setting real_kernel for ELPA failed ***

    78 Broy./Diag. 0.30E+00    1.8     0.00000635     -2538.1473332173 -1.62E-05

 *** WARNING in fm/cp_fm_elpa.F:521 :: Setting real_kernel for ELPA failed ***

    79 Broy./Diag. 0.30E+00    1.8     0.00000686     -2538.1473741270 -4.09E-05

 *** WARNING in fm/cp_fm_elpa.F:521 :: Setting real_kernel for ELPA failed ***

    80 Broy./Diag. 0.30E+00    1.8     0.00003346     -2538.1473239563  5.02E-05

 *** WARNING in fm/cp_fm_elpa.F:521 :: Setting real_kernel for ELPA failed ***

    81 Broy./Diag. 0.30E+00    1.8     0.00007729     -2538.1473352848 -1.13E-05

 *** WARNING in fm/cp_fm_elpa.F:521 :: Setting real_kernel for ELPA failed ***

    82 Broy./Diag. 0.30E+00    1.8     0.00002551     -2538.1472926373  4.26E-05

 *** WARNING in fm/cp_fm_elpa.F:521 :: Setting real_kernel for ELPA failed ***

    83 Broy./Diag. 0.30E+00    1.8     0.00006509     -2538.1472921060  5.31E-07

 *** WARNING in fm/cp_fm_elpa.F:521 :: Setting real_kernel for ELPA failed ***

    84 Broy./Diag. 0.30E+00    1.8     0.00004194     -2538.1472978519 -5.75E-06

 *** WARNING in fm/cp_fm_elpa.F:521 :: Setting real_kernel for ELPA failed ***

    85 Broy./Diag. 0.30E+00    1.8     0.00000877     -2538.1472839869  1.39E-05

 *** WARNING in fm/cp_fm_elpa.F:521 :: Setting real_kernel for ELPA failed ***

    86 Broy./Diag. 0.30E+00    1.8     0.00003118     -2538.1472791297  4.86E-06

 *** WARNING in fm/cp_fm_elpa.F:521 :: Setting real_kernel for ELPA failed ***

    87 Broy./Diag. 0.30E+00    1.8     0.00002965     -2538.1472871895 -8.06E-06

 *** WARNING in fm/cp_fm_elpa.F:521 :: Setting real_kernel for ELPA failed ***

    88 Broy./Diag. 0.30E+00    1.8     0.00003150     -2538.1472976698 -1.05E-05

 *** WARNING in fm/cp_fm_elpa.F:521 :: Setting real_kernel for ELPA failed ***

    89 Broy./Diag. 0.30E+00    1.8     0.00000680     -2538.1472941761  3.49E-06

[...]
     99      3      H           0.01222018    -0.01986339     0.03278437
 SUM OF ATOMIC FORCES           0.00007768     0.00205000    -0.00045647     0.00210164

 STRESS| Analytical stress tensor [GPa]
 STRESS|                        x                   y                   z
 STRESS|      x       -3.78013256096E+00   2.43657275021E-03  -1.86728640865E-02
 STRESS|      y        2.43657275021E-03  -3.84851104216E+00   2.47778438662E-02
 STRESS|      z       -1.86728640865E-02   2.47778438662E-02  -3.72519349311E-01
 STRESS| 1/3 Trace                                            -2.66705431748E+00
 STRESS| Determinant                                          -5.41570487965E+00

 STRESS| Eigenvectors and eigenvalues of the analytical stress tensor [GPa]
 STRESS|                        1                   2                   3
 STRESS| Eigenvalues  -3.84878397681E+00  -3.78013835963E+00  -3.72240615998E-01
 STRESS|      x          -0.037458112696      0.999283205737     -0.005473986176
 STRESS|      y           0.999271360894      0.037496691066      0.007123584513
 STRESS|      z          -0.007323734737      0.005203161584      0.999959644195

 -------------------------------------------------------------------------------
 -                                                                             -
 -                                DBCSR STATISTICS                             -
 -                                                                             -
 -------------------------------------------------------------------------------
 COUNTER                                    TOTAL       BLAS       SMM       ACC
 flops     5 x    13 x    96              1272960       0.0%    100.0%      0.0%
 flops    13 x     5 x    96              1272960       0.0%    100.0%      0.0%
 flops     5 x     5 x    96              1468800       0.0%    100.0%      0.0%
 flops     5 x    13 x   120              1591200       0.0%    100.0%      0.0%
 flops    13 x     5 x   120              1591200       0.0%    100.0%      0.0%
 flops     5 x     5 x   120              1836000       0.0%    100.0%      0.0%
 flops    13 x    13 x    96              3309696       0.0%    100.0%      0.0%
 flops    13 x    13 x   120              4137120       0.0%    100.0%      0.0%
 flops     5 x    13 x   128             10183680       0.0%    100.0%      0.0%
 flops    13 x     5 x   128             10183680       0.0%    100.0%      0.0%
 flops     5 x     5 x   128             11750400       0.0%    100.0%      0.0%
 flops    13 x    13 x   128             26477568       0.0%    100.0%      0.0%
 flops     5 x    20 x    96            186048000       0.0%    100.0%      0.0%
 flops    20 x     5 x    96            186048000       0.0%    100.0%      0.0%
 flops    20 x    13 x    96            198581760       0.0%    100.0%      0.0%
 flops    13 x    20 x    96            203673600       0.0%    100.0%      0.0%
 flops     5 x    20 x   120            232560000       0.0%    100.0%      0.0%
 flops    20 x     5 x   120            232560000       0.0%    100.0%      0.0%
 flops    20 x    13 x   120            248227200       0.0%    100.0%      0.0%
 flops    13 x    20 x   120            254592000       0.0%    100.0%      0.0%
 flops     5 x    20 x   128           1488384000       0.0%    100.0%      0.0%
 flops    20 x     5 x   128           1488384000       0.0%    100.0%      0.0%
 flops    20 x    13 x   128           1588654080       0.0%    100.0%      0.0%
 flops    13 x    20 x   128           1629388800       0.0%    100.0%      0.0%
 flops    20 x    20 x    96          36473241600       0.0%    100.0%      0.0%
 flops    20 x    20 x   120          45591552000       0.0%    100.0%      0.0%
 flops    20 x    20 x   128         291785932800       0.0%    100.0%      0.0%
 flops inhomo. stacks                           0       0.0%      0.0%      0.0%
 flops total                       381.862903E+09       0.0%    100.0%      0.0%
 flops max/rank                     12.791902E+09       0.0%    100.0%      0.0%
 matmuls inhomo. stacks                         0       0.0%      0.0%      0.0%
 matmuls total                            4023696       0.0%    100.0%      0.0%
 number of processed stacks                 60384       0.0%    100.0%      0.0%
 average stack size                                     0.0      66.6       0.0
 marketing flops                   396.658311E+09
 -------------------------------------------------------------------------------
 # multiplications                            102
 max memory usage/rank             863.461376E+06
 # max total images/rank                        2
 # max 3D layers                                1
 # MPI messages exchanged                   42432
 MPI messages size (bytes):
  total size                        15.601199E+09
  min size                         184.320000E+03
  max size                         504.832000E+03
  average size                     367.675312E+03
 MPI breakdown and total messages size (bytes):
             size <=      128                   0                        0
       128 < size <=     8192                   0                        0
      8192 < size <=    32768                   0                        0
     32768 < size <=   131072                   0                        0
    131072 < size <=  4194304               42432              15601201920
   4194304 < size <= 16777216                   0                        0
  16777216 < size                               0                        0
 -------------------------------------------------------------------------------

 *** WARNING in dbcsr_mm.F:294 :: Using a non-square number of MPI ranks ***
 *** might lead to poor performance. Used ranks: 32 Suggested: 36 64     ***

 -------------------------------------------------------------------------------
 -                                                                             -
 -                      DBCSR MESSAGE PASSING PERFORMANCE                      -
 -                                                                             -
 -------------------------------------------------------------------------------
 ROUTINE             CALLS      AVE VOLUME [Bytes]
 MP_Bcast               28                     12.
 MP_Allreduce          788                     10.
 MP_Alltoall          2856                 277757.
 MP_ISend             3264                 160670.
 MP_IRecv             3264                 154430.
 -------------------------------------------------------------------------------

 -------------------------------------------------------------------------------
 -                                                                             -
 -                                GRID STATISTICS                              -
 -                                                                             -
 -------------------------------------------------------------------------------
 LP    KERNEL             BACKEND                              COUNT     PERCENT
 4     collocate ortho    REF                               14334876      49.01%
 4     integrate ortho    REF                               14194338      48.53%
 3     collocate ortho    REF                                 272646       0.93%
 3     integrate ortho    REF                                 269973       0.92%
 7     integrate ortho    REF                                 140538       0.48%
 2     collocate ortho    REF                                  10812       0.04%
 2     integrate ortho    REF                                  10706       0.04%
 0     collocate general  REF                                   6336       0.02%
 0     integrate general  REF                                   3168       0.01%
 3     integrate general  REF                                   3168       0.01%
 6     integrate ortho    REF                                   2673       0.01%
 5     integrate ortho    REF                                    106       0.00%
 -------------------------------------------------------------------------------

 MEMORY| Estimated peak process memory [MiB]                                 842

 -------------------------------------------------------------------------------
 ----                             MULTIGRID INFO                            ----
 -------------------------------------------------------------------------------
 count for grid        1:         253015          cutoff [a.u.]          200.00
 count for grid        2:         266621          cutoff [a.u.]           66.67
 count for grid        3:         152847          cutoff [a.u.]           22.22
 count for grid        4:         107333          cutoff [a.u.]            7.41
 total gridlevel count  :         779816

 -------------------------------------------------------------------------------
 -                                                                             -
 -                         MESSAGE PASSING PERFORMANCE                         -
 -                                                                             -
 -------------------------------------------------------------------------------

 ROUTINE             CALLS      AVE VOLUME [Bytes]
 MP_Group                4
 MP_Bcast              304                1801191.
 MP_Allreduce         1714                   1158.
 MP_Sync               105
 MP_Alltoall          2362               12505130.
 MP_SendRecv           124                   6255.
 MP_ISendRecv        12648                  81216.
 MP_Wait             29328
 MP_ISend            15240                 213250.
 MP_IRecv            15240                 213250.
 MP_Recv               180                 497408.
 MP_Write_All            3                1451072.
 -------------------------------------------------------------------------------


 -------------------------------------------------------------------------------
 -                                                                             -
 -                           R E F E R E N C E S                               -
 -                                                                             -
 -------------------------------------------------------------------------------

 CP2K version 9.1, the CP2K developers group (2021).
 CP2K is freely available from https://www.cp2k.org/ .

 Kuehne,Thomas D.; Iannuzzi,Marcella; Del Ben,Mauro;
 Rybkin,Vladimir V.; Seewald,Patrick; Stein,Frederick; Laino,Teodoro;
 Khaliullin,Rustam Z.; Schuett,Ole; Schiffmann,Florian; Golze,Dorothea;
 Wilhelm,Jan; Chulkov,Sergey; Bani-Hashemian,Mohammad Hossein;
 Weber,Valery; Borstnik,Urban; Taillefumier,Mathieu;
 Jakobovits,Alice Shoshana; Lazzaro,Alfio; Pabst,Hans; Mueller,Tiziano;
 Schade,Robert; Guidon,Manuel; Andermatt,Samuel; Holmberg,Nico;
 Schenter,Gregory K.; Hehn,Anna; Bussy,Augustin; Belleflamme,Fabian;
 Tabacchi,Gloria; Gloess,Andreas; Lass,Michael; Bethune,Iain;
 Mundy,Christopher J.; Plessl,Christian; Watkins,Matt;
 VandeVondele,Joost; Krack,Matthias; Hutter,Juerg.
 The Journal of Chemical Physics, 152 (19), (2020).
 CP2K: An electronic structure and molecular dynamics software package -
 Quickstep: Efficient and accurate electronic structure calculations.
 https://doi.org/10.1063/5.0007045

 Goerigk, Lars; Hansen, Andreas; Bauer, Christoph; Ehrlich, Stephan;
 Najibi, Asim; Grimme, Stefan. , 19 (48), (2017).
 A look at the density functional theory zoo with the advanced GMTKN55 database
 for general main group thermochemistry, kinetics and noncovalent interactions.
 https://doi.org/10.1039/C7CP04913G

 Schuett, Ole; Messmer, Peter; Hutter, Juerg; VandeVondele, Joost.
 Electronic Structure Calculations on Graphics Processing Units, John
 Wiley & Sons, Ltd, 173-190 (2016).
 GPU-Accelerated Sparse Matrix-Matrix Multiplication for
 Linear Scaling Density Functional Theory.
 https://doi.org/10.1002/9781118670712.ch8

 Heinecke, A; Henry, G; Hutchinson, M; Pabst, H.
 Proceedings of Intl. Supercomputing Conference, 981-991 (2016).
 LIBXSMM: Accelerating Small Matrix Multiplications
 by Runtime Code Generation.
 https://doi.org/10.1109/SC.2016.83

 Borstnik, U; VandeVondele, J; Weber, V; Hutter, J.
 PARALLEL COMPUTING, 40 (5-6), 47-58 (2014).
 Sparse matrix multiplication: The distributed block-compressed sparse
 row library.
 https://doi.org/10.1016/j.parco.2014.03.012

 Hutter, J; Iannuzzi, M; Schiffmann, F; VandeVondele, J.
 WIREs Comput Mol Sci., 4 (1), 15-25 (2014).
 CP2K: atomistic simulations of condensed matter systems.
 https://doi.org/10.1002/wcms.1159

 Marek, A; Blum, V; Johanni, R; Havu, V; Lang, B; Auckenthaler, T;
 Heinecke, A; Bungartz, H; Lederer, H.
 Journal of Physics: Condensed Matter, 26 (21), (2014).
 The ELPA library: scalable parallel eigenvalue solutions for
 electronic structure
 theory and computational science.
 https://doi.org/10.1088/0953-8984/26/21/213201

 Grimme, S; Ehrlich, S; Goerigk, L.
 JOURNAL OF COMPUTATIONAL CHEMISTRY, 32, 1456 (2011).
 Effect of the damping function in dispersion corrected density functional theory.
 https://doi.org/10.1002/jcc.21759

 Grimme, S; Antony, J; Ehrlich, S; Krieg, H.
 JOURNAL OF CHEMICAL PHYSICS, 132 (15), 154104 (2010).
 A consistent and accurate ab initio parametrization of density
 functional dispersion correction (DFT-D) for the 94 elements H-Pu.
 https://doi.org/10.1063/1.3382344

 VandeVondele, J; Hutter, J.
 JOURNAL OF CHEMICAL PHYSICS, 127 (11), 114105 (2007).
 Gaussian basis sets for accurate calculations on molecular systems in
 gas and condensed phases.
 https://doi.org/10.1063/1.2770708

 Krack, M.
 THEORETICAL CHEMISTRY ACCOUNTS, 114 (1-3), 145-152 (2005).
 Pseudopotentials for H to Kr optimized for gradient-corrected
 exchange-correlation functionals.
 https://doi.org/10.1007/s00214-005-0655-y

 VandeVondele, J; Krack, M; Mohamed, F; Parrinello, M; Chassaing, T;
 Hutter, J. COMPUTER PHYSICS COMMUNICATIONS, 167 (2), 103-128 (2005).
 QUICKSTEP: Fast and accurate density functional calculations using a
 mixed Gaussian and plane waves approach.
 https://doi.org/10.1016/j.cpc.2004.12.014

 Frigo, M; Johnson, SG.
 PROCEEDINGS OF THE IEEE, 93 (2), 216-231 (2005).
 The design and implementation of FFTW3.
 https://doi.org/10.1109/JPROC.2004.840301

 Hartwigsen, C; Goedecker, S; Hutter, J.
 PHYSICAL REVIEW B, 58 (7), 3641-3662 (1998).
 Relativistic separable dual-space Gaussian pseudopotentials from H to Rn.
 https://doi.org/10.1103/PhysRevB.58.3641

 Lippert, G; Hutter, J; Parrinello, M.
 MOLECULAR PHYSICS, 92 (3), 477-487 (1997).
 A hybrid Gaussian and plane wave density functional scheme.
 https://doi.org/10.1080/002689797170220

 Perdew, JP; Burke, K; Ernzerhof, M.
 PHYSICAL REVIEW LETTERS, 77 (18), 3865-3868 (1996).
 Generalized gradient approximation made simple.
 https://doi.org/10.1103/PhysRevLett.77.3865

 Goedecker, S; Teter, M; Hutter, J.
 PHYSICAL REVIEW B, 54 (3), 1703-1710 (1996).
 Separable dual-space Gaussian pseudopotentials.
 https://doi.org/10.1103/PhysRevB.54.1703


 -------------------------------------------------------------------------------
 -                                                                             -
 -                                T I M I N G                                  -
 -                                                                             -
 -------------------------------------------------------------------------------
 SUBROUTINE                       CALLS  ASD         SELF TIME        TOTAL TIME
                                MAXIMUM       AVERAGE  MAXIMUM  AVERAGE  MAXIMUM
 CP2K                                 1  1.0    0.019    0.031  189.187  189.187
 qs_forces                            1  2.0    0.001    0.002  188.874  188.874
 qs_energies                          1  3.0    0.000    0.000  184.815  184.816
 scf_env_do_scf                       1  4.0    0.000    0.000  181.511  181.593
 scf_env_do_scf_inner_loop          101  5.0    0.003    0.019  181.511  181.592
 rebuild_ks_matrix                  102  7.0    0.000    0.001  100.907  100.929
 qs_ks_build_kohn_sham_matrix       102  8.0    0.012    0.015  100.907  100.929
 qs_ks_update_qs_env                101  6.0    0.001    0.001   98.623   98.645
 pw_transfer                       2142 10.4    0.122    0.150   59.644   60.876
 fft_wrap_pw1pw2                   1938 11.5    0.022    0.026   58.944   60.192
 fft_wrap_pw1pw2_200               1326 12.4    4.833    5.310   56.961   58.304
 qs_vxc_create                      102  9.0    0.002    0.002   45.246   45.258
 xc_vxc_pw_create                   102 10.0    0.819    1.025   45.244   45.256
 fft3d_ps                          1938 13.5   26.675   31.599   43.561   44.745
 qs_rho_update_rho                  102  6.0    0.001    0.001   43.495   43.589
 calculate_rho_elec                 102  7.0    0.152    0.180   43.495   43.589
 sum_up_and_integrate               102  9.0    0.138    0.167   43.265   43.288
 integrate_v_rspace                 102 10.0    0.003    0.003   43.127   43.153
 grid_integrate_task_list           102 11.0   17.267   31.947   17.267   31.947
 density_rs2pw                      102  8.0    0.005    0.006   25.232   29.999
 grid_collocate_task_list           102  8.0   16.942   29.743   16.942   29.743
 xc_rho_set_and_dset_create         102 11.0    0.142    0.207   23.542   25.551
 rs_pw_transfer                     820 10.5    0.011    0.013   20.896   25.533
 qs_scf_new_mos                     101  6.0    0.001    0.002   23.773   23.833
 eigensolver                        101  7.0    0.006    0.009   21.461   21.581
 mp_alltoall_d11v                  1429 10.3   15.692   20.817   15.692   20.817
 rs_gather_matrices                 102 11.0    0.041    0.048   14.851   19.958
 rs_pw_transfer_RS2PW_200           104 10.0    1.441    2.089   14.228   18.817
 mp_waitany                       15240 12.5   13.466   18.461   13.466   18.461
 gspace_mixing                      100  6.0    0.150    0.177   15.826   15.826
 mp_alltoall_z22v                  1938 15.5   10.741   14.582   10.741   14.582
 cp_fm_diag_elpa                    101  8.0    0.001    0.001   13.877   13.959
 cp_fm_diag_elpa_base               101  9.0   13.547   13.567   13.809   13.815
 broyden_mixing                     100  7.0   11.116   11.197   11.302   11.329
 x_to_yz                           1019 14.6    4.097    4.835    9.558   11.175
 potential_pw2rs                    102 11.0    0.014    0.015   11.004   11.020
 xc_functional_eval                 102 12.0    0.001    0.001    7.972    9.733
 pbe_lda_eval                       102 13.0    7.971    9.732    7.971    9.732
 yz_to_x                            715 14.3    1.941    2.154    7.208    9.420
 cp_fm_triangular_multiply          303  8.0    7.309    7.448    7.309    7.448
 pw_scatter_p                      1121 13.7    6.090    6.546    6.090    6.546
 calc_dipsurf_potential             102  9.0    0.574    0.706    5.615    6.185
 pw_gather_p                        817 13.1    4.266    4.401    4.266    4.401
 rs_pw_transfer_PW2RS_200           104 12.9    2.586    2.645    4.109    4.260
 -------------------------------------------------------------------------------

 The number of warnings for this run is : 103

 -------------------------------------------------------------------------------
  **** **** ******  **  PROGRAM ENDED AT                 2023-05-08 05:41:06.467
 ***** ** ***  *** **   PROGRAM RAN ON                                   c53-010
 **    ****   ******    PROGRAM RAN BY                                     jxzhu
 ***** **    ** ** **   PROGRAM PROCESS ID                                358958
  **** **  *******  **  PROGRAM STOPPED IN /data/jxzhu/nnp/dp_workdir/ecd215d8f1
                                           756e1c8fe1226516a4c6e8f724df5f/task.0
                                           00.000000
