 DBCSR| CPU Multiplication driver                                           XSMM
 DBCSR| Multrec recursion limit                                              512
 DBCSR| Multiplication stack size                                           1000
 DBCSR| Maximum elements for images                                    UNLIMITED
 DBCSR| Multiplicative factor virtual images                                   1
 DBCSR| Use multiplication densification                                       T
 DBCSR| Multiplication size stacks                                             3
 DBCSR| Use memory pool for CPU allocation                                     F
 DBCSR| Number of 3D layers                                               SINGLE
 DBCSR| Use MPI memory allocation                                              F
 DBCSR| Use RMA algorithm                                                      F
 DBCSR| Use Communication thread                                               T
 DBCSR| Communication thread load                                             87
 DBCSR| MPI: My node id                                                        0
 DBCSR| MPI: Number of nodes                                                  64
 DBCSR| OMP: Current number of threads                                         1
 DBCSR| OMP: Max number of threads                                             1
 DBCSR| Split modifier for TAS multiplication algorithm                  1.0E+00


  **** **** ******  **  PROGRAM STARTED AT               2024-07-25 23:27:00.771
 ***** ** ***  *** **   PROGRAM STARTED ON                                 cu028
 **    ****   ******    PROGRAM STARTED BY                                 jxzhu
 ***** **    ** ** **   PROGRAM PROCESS ID                                 18031
  **** **  *******  **  PROGRAM STARTED IN /public/home/jxzhu/workspace/2022_lei
                                           den/pub_repo/06.orient_eps/02.V_hartr
                                           ee_from_mlwc

 CP2K| version string:                                       CP2K version 2022.1
 CP2K| source code revision number:                                  git:2caeb6f
 CP2K| cp2kflags: omp libint fftw3 libxc elpa parallel mpi3 scalapack cosma xsmm
 CP2K|             plumed2 spglib mkl sirius libvori libbqb
 CP2K| is freely available from                            https://www.cp2k.org/
 CP2K| Program compiled at                           Mon Jul 3 17:37:06 CST 2023
 CP2K| Program compiled on                                                 mu003
 CP2K| Program compiled for                                                local
 CP2K| Data directory path                             /public/home/jxzhu/basis/
 CP2K| Input file name                                                 input.inp
 
 GLOBAL| Force Environment number                                              1
 GLOBAL| Basis set file name                                        BASIS_MOLOPT
 GLOBAL| Potential file name                                      GTH_POTENTIALS
 GLOBAL| MM Potential file name                                     MM_POTENTIAL
 GLOBAL| Coordinate file name                                          coord.xyz
 GLOBAL| Method name                                                        CP2K
 GLOBAL| Project name                                                       cp2k
 GLOBAL| Run type                                                   ENERGY_FORCE
 GLOBAL| FFT library                                                       FFTW3
 GLOBAL| Diagonalization library                                            ELPA
 GLOBAL| Minimum number of eigenvectors for ELPA usage                        16
 GLOBAL| Orthonormality check for eigenvectors                          DISABLED
 GLOBAL| Matrix multiplication library                                     COSMA
 GLOBAL| All-to-all communication in single precision                          F
 GLOBAL| FFTs using library dependent lengths                                  F
 GLOBAL| Grid backend                                                       AUTO
 GLOBAL| Global print level                                               MEDIUM
 GLOBAL| MPI I/O enabled                                                       T
 GLOBAL| Total number of message passing processes                            64
 GLOBAL| Number of threads for this process                                    1
 GLOBAL| This output is from process                                           0
 GLOBAL| Stack size for threads created by OpenMP (OMP_STACKSIZE)        default
 GLOBAL| CPU model name                 Intel(R) Xeon(R) Gold 6338 CPU @ 2.00GHz
 GLOBAL| CPUID                                                              1003

 MEMORY| system memory details [Kb]
 MEMORY|                        rank 0           min           max       average
 MEMORY| MemTotal            263619168     263619168     263619168     263619168
 MEMORY| MemFree             191206836     191206836     191209316     191206932
 MEMORY| Buffers                    68            68            68            68
 MEMORY| Cached               11933856      11933856      11933856      11933856
 MEMORY| Slab                  3333972       3333972       3333972       3333972
 MEMORY| SReclaimable           466748        466748        466748        466748
 MEMORY| MemLikelyFree       203607508     203607508     203609988     203607604


 *** Fundamental physical constants (SI units) ***

 *** Literature: B. J. Mohr and B. N. Taylor,
 ***             CODATA recommended values of the fundamental physical
 ***             constants: 2006, Web Version 5.1
 ***             http://physics.nist.gov/constants

 Speed of light in vacuum [m/s]                             2.99792458000000E+08
 Magnetic constant or permeability of vacuum [N/A**2]       1.25663706143592E-06
 Electric constant or permittivity of vacuum [F/m]          8.85418781762039E-12
 Planck constant (h) [J*s]                                  6.62606896000000E-34
 Planck constant (h-bar) [J*s]                              1.05457162825177E-34
 Elementary charge [C]                                      1.60217648700000E-19
 Electron mass [kg]                                         9.10938215000000E-31
 Electron g factor [ ]                                     -2.00231930436220E+00
 Proton mass [kg]                                           1.67262163700000E-27
 Fine-structure constant                                    7.29735253760000E-03
 Rydberg constant [1/m]                                     1.09737315685270E+07
 Avogadro constant [1/mol]                                  6.02214179000000E+23
 Boltzmann constant [J/K]                                   1.38065040000000E-23
 Atomic mass unit [kg]                                      1.66053878200000E-27
 Bohr radius [m]                                            5.29177208590000E-11

 *** Conversion factors ***

 [u] -> [a.u.]                                              1.82288848426455E+03
 [Angstrom] -> [Bohr] = [a.u.]                              1.88972613288564E+00
 [a.u.] = [Bohr] -> [Angstrom]                              5.29177208590000E-01
 [a.u.] -> [s]                                              2.41888432650478E-17
 [a.u.] -> [fs]                                             2.41888432650478E-02
 [a.u.] -> [J]                                              4.35974393937059E-18
 [a.u.] -> [N]                                              8.23872205491840E-08
 [a.u.] -> [K]                                              3.15774647902944E+05
 [a.u.] -> [kJ/mol]                                         2.62549961709828E+03
 [a.u.] -> [kcal/mol]                                       6.27509468713739E+02
 [a.u.] -> [Pa]                                             2.94210107994716E+13
 [a.u.] -> [bar]                                            2.94210107994716E+08
 [a.u.] -> [atm]                                            2.90362800883016E+08
 [a.u.] -> [eV]                                             2.72113838565563E+01
 [a.u.] -> [Hz]                                             6.57968392072181E+15
 [a.u.] -> [1/cm] (wave numbers)                            2.19474631370540E+05
 [a.u./Bohr**2] -> [1/cm]                                   5.14048714338585E+03
 

 CELL_TOP| Volume [angstrom^3]:                                      5000.992488
 CELL_TOP| Vector a [angstrom    12.420     0.000     0.000   |a| =    12.420000
 CELL_TOP| Vector b [angstrom     0.000    12.420     0.000   |b| =    12.420000
 CELL_TOP| Vector c [angstrom     0.000     0.000    32.420   |c| =    32.420000
 CELL_TOP| Angle (b,c), alpha [degree]:                                90.000000
 CELL_TOP| Angle (a,c), beta  [degree]:                                90.000000
 CELL_TOP| Angle (a,b), gamma [degree]:                                90.000000
 CELL_TOP| Numerically orthorhombic:                                         YES
 
 GENERATE|  Preliminary Number of Bonds generated:                             0
 GENERATE|  Achieved consistency in connectivity generation.

 CELL| Volume [angstrom^3]:                                          5000.992488
 CELL| Vector a [angstrom]:      12.420     0.000     0.000   |a| =    12.420000
 CELL| Vector b [angstrom]:       0.000    12.420     0.000   |b| =    12.420000
 CELL| Vector c [angstrom]:       0.000     0.000    32.420   |c| =    32.420000
 CELL| Angle (b,c), alpha [degree]:                                    90.000000
 CELL| Angle (a,c), beta  [degree]:                                    90.000000
 CELL| Angle (a,b), gamma [degree]:                                    90.000000
 CELL| Numerically orthorhombic:                                             YES

 CELL_REF| Volume [angstrom^3]:                                      5000.992488
 CELL_REF| Vector a [angstrom    12.420     0.000     0.000   |a| =    12.420000
 CELL_REF| Vector b [angstrom     0.000    12.420     0.000   |b| =    12.420000
 CELL_REF| Vector c [angstrom     0.000     0.000    32.420   |c| =    32.420000
 CELL_REF| Angle (b,c), alpha [degree]:                                90.000000
 CELL_REF| Angle (a,c), beta  [degree]:                                90.000000
 CELL_REF| Angle (a,b), gamma [degree]:                                90.000000
 CELL_REF| Numerically orthorhombic:                                         YES

 *******************************************************************************
 *******************************************************************************
 **                                                                           **
 **     #####                         ##              ##                      **
 **    ##   ##            ##          ##              ##                      **
 **   ##     ##                       ##            ######                    **
 **   ##     ##  ##   ##  ##   #####  ##  ##   ####   ##    #####    #####    **
 **   ##     ##  ##   ##  ##  ##      ## ##   ##      ##   ##   ##  ##   ##   **
 **   ##  ## ##  ##   ##  ##  ##      ####     ###    ##   ######   ######    **
 **    ##  ###   ##   ##  ##  ##      ## ##      ##   ##   ##       ##        **
 **     #######   #####   ##   #####  ##  ##  ####    ##    #####   ##        **
 **           ##                                                    ##        **
 **                                                                           **
 **                                                ... make the atoms dance   **
 **                                                                           **
 **            Copyright (C) by CP2K developers group (2000-2022)             **
 **                      J. Chem. Phys. 152, 194103 (2020)                    **
 **                                                                           **
 *******************************************************************************

 DFT| Spin restricted Kohn-Sham (RKS) calculation                            RKS
 DFT| Multiplicity                                                             1
 DFT| Number of spin states                                                    1
 DFT| Charge                                                                   0
 DFT| Self-interaction correction (SIC)                                       NO
 DFT| Cutoffs: density                                              1.000000E-10
 DFT|          gradient                                             1.000000E-10
 DFT|          tau                                                  1.000000E-10
 DFT|          cutoff_smoothing_range                               0.000000E+00
 DFT| XC density smoothing                                                  NONE
 DFT| XC derivatives                                                          PW

 FUNCTIONAL| PBE:
 FUNCTIONAL| J.P.Perdew, K.Burke, M.Ernzerhof, Phys. Rev. Letter, vol. 77, n 18,
 FUNCTIONAL|  pp. 3865-3868, (1996){spin unpolarized}                           

 vdW POTENTIAL|                                                   Pair Potential
 vdW POTENTIAL|          DFT-D3 (Version 3.1)
 vdW POTENTIAL|          Potential Form: S. Grimme et al, JCP 132: 154104 (2010)
 vdW POTENTIAL|          Zero Damping
 vdW POTENTIAL|          Cutoff Radius [Bohr]:                             20.00
 vdW POTENTIAL|          s6 Scaling Factor:                               1.0000
 vdW POTENTIAL|          sr6 Scaling Factor:                              1.2170
 vdW POTENTIAL|          s8 Scaling Factor:                               0.7220
 vdW POTENTIAL|          Cutoff for CN calculation:                   0.1000E-05

 QS| Method:                                                                 GPW
 QS| Density plane wave grid type                        NON-SPHERICAL FULLSPACE
 QS| Number of grid levels:                                                    5
 QS| Density cutoff [a.u.]:                                                400.0
 QS| Multi grid cutoff [a.u.]: 1) grid level                               400.0
 QS|                           2) grid level                               133.3
 QS|                           3) grid level                                44.4
 QS|                           4) grid level                                14.8
 QS|                           5) grid level                                 4.9
 QS| Grid level progression factor:                                          3.0
 QS| Relative density cutoff [a.u.]:                                        20.0
 QS| Interaction thresholds: eps_pgf_orb:                                3.2E-07
 QS|                         eps_filter_matrix:                          0.0E+00
 QS|                         eps_core_charge:                            1.0E-15
 QS|                         eps_rho_gspace:                             1.0E-13
 QS|                         eps_rho_rspace:                             1.0E-13
 QS|                         eps_gvg_rspace:                             3.2E-07
 QS|                         eps_ppl:                                    1.0E-02
 QS|                         eps_ppnl:                                   3.2E-09


 ATOMIC KIND INFORMATION

  1. Atomic kind: O                                     Number of atoms:      64

     Orbital Basis Set                                        DZVP-MOLOPT-SR-GTH

       Number of orbital shell sets:                                           1
       Number of orbital shells:                                               5
       Number of primitive Cartesian functions:                                5
       Number of Cartesian basis functions:                                   14
       Number of spherical basis functions:                                   13
       Norm type:                                                              2

       Normalised Cartesian orbitals:

                        Set   Shell   Orbital            Exponent    Coefficient

                          1       1    2s               10.389228       0.396646
                                                         3.849621       0.208811
                                                         1.388401      -0.301641
                                                         0.496955      -0.274061
                                                         0.162492      -0.033677

                          1       2    3s               10.389228       0.303673
                                                         3.849621       0.240943
                                                         1.388401      -0.313066
                                                         0.496955      -0.043055
                                                         0.162492       0.213991

                          1       3    3px              10.389228      -1.530415
                                                         3.849621      -1.371928
                                                         1.388401      -0.761951
                                                         0.496955      -0.253695
                                                         0.162492      -0.035541
                          1       3    3py              10.389228      -1.530415
                                                         3.849621      -1.371928
                                                         1.388401      -0.761951
                                                         0.496955      -0.253695
                                                         0.162492      -0.035541
                          1       3    3pz              10.389228      -1.530415
                                                         3.849621      -1.371928
                                                         1.388401      -0.761951
                                                         0.496955      -0.253695
                                                         0.162492      -0.035541

                          1       4    4px              10.389228      -0.565392
                                                         3.849621      -0.038231
                                                         1.388401      -0.382373
                                                         0.496955       0.179070
                                                         0.162492       0.122714
                          1       4    4py              10.389228      -0.565392
                                                         3.849621      -0.038231
                                                         1.388401      -0.382373
                                                         0.496955       0.179070
                                                         0.162492       0.122714
                          1       4    4pz              10.389228      -0.565392
                                                         3.849621      -0.038231
                                                         1.388401      -0.382373
                                                         0.496955       0.179070
                                                         0.162492       0.122714

                          1       5    4dx2             10.389228       1.867377
                                                         3.849621       0.670994
                                                         1.388401       1.353441
                                                         0.496955       0.273538
                                                         0.162492       0.006620
                          1       5    4dxy             10.389228       3.234392
                                                         3.849621       1.162195
                                                         1.388401       2.344229
                                                         0.496955       0.473781
                                                         0.162492       0.011466
                          1       5    4dxz             10.389228       3.234392
                                                         3.849621       1.162195
                                                         1.388401       2.344229
                                                         0.496955       0.473781
                                                         0.162492       0.011466
                          1       5    4dy2             10.389228       1.867377
                                                         3.849621       0.670994
                                                         1.388401       1.353441
                                                         0.496955       0.273538
                                                         0.162492       0.006620
                          1       5    4dyz             10.389228       3.234392
                                                         3.849621       1.162195
                                                         1.388401       2.344229
                                                         0.496955       0.473781
                                                         0.162492       0.011466
                          1       5    4dz2             10.389228       1.867377
                                                         3.849621       0.670994
                                                         1.388401       1.353441
                                                         0.496955       0.273538
                                                         0.162492       0.006620

       Atomic covalent radius [Angstrom]:                                  0.730

       Atomic van der Waals radius [Angstrom]:                             1.520

     GTH Potential information for                                    GTH-PBE-q6

       Description:                       Goedecker-Teter-Hutter pseudopotential
                                           Goedecker et al., PRB 54, 1703 (1996)
                                          Hartwigsen et al., PRB 58, 3641 (1998)
                                                      Krack, TCA 114, 145 (2005)

       Gaussian exponent of the core charge distribution:               8.360253
       Electronic configuration (s p d ...):                               2   4

       Parameters of the local part of the GTH pseudopotential:

                          rloc        C1          C2          C3          C4
                        0.244554  -16.667215    2.487311

       Parameters of the non-local part of the GTH pseudopotential:

                   l      r(l)      h(i,j,l)

                   0    0.220956   18.337458
                   1    0.211332

  2. Atomic kind: H                                     Number of atoms:     128

     Orbital Basis Set                                        DZVP-MOLOPT-SR-GTH

       Number of orbital shell sets:                                           1
       Number of orbital shells:                                               3
       Number of primitive Cartesian functions:                                5
       Number of Cartesian basis functions:                                    5
       Number of spherical basis functions:                                    5
       Norm type:                                                              2

       Normalised Cartesian orbitals:

                        Set   Shell   Orbital            Exponent    Coefficient

                          1       1    2s               10.068468      -0.133023
                                                         2.680223      -0.177618
                                                         0.791502      -0.258419
                                                         0.239116      -0.107525
                                                         0.082193      -0.014019

                          1       2    3s               10.068468       0.344673
                                                         2.680223       1.819821
                                                         0.791502      -0.999069
                                                         0.239116       0.017430
                                                         0.082193       0.082660

                          1       3    3px              10.068468       0.155326
                                                         2.680223       0.367157
                                                         0.791502       0.311480
                                                         0.239116       0.080105
                                                         0.082193       0.033440
                          1       3    3py              10.068468       0.155326
                                                         2.680223       0.367157
                                                         0.791502       0.311480
                                                         0.239116       0.080105
                                                         0.082193       0.033440
                          1       3    3pz              10.068468       0.155326
                                                         2.680223       0.367157
                                                         0.791502       0.311480
                                                         0.239116       0.080105
                                                         0.082193       0.033440

       Atomic covalent radius [Angstrom]:                                  0.320

       Atomic van der Waals radius [Angstrom]:                             1.090

     GTH Potential information for                                    GTH-PBE-q1

       Description:                       Goedecker-Teter-Hutter pseudopotential
                                           Goedecker et al., PRB 54, 1703 (1996)
                                          Hartwigsen et al., PRB 58, 3641 (1998)
                                                      Krack, TCA 114, 145 (2005)

       Gaussian exponent of the core charge distribution:              12.500000
       Electronic configuration (s p d ...):                                   1

       Parameters of the local part of the GTH pseudopotential:

                          rloc        C1          C2          C3          C4
                        0.200000   -4.178900    0.724463


 MOLECULE KIND INFORMATION


 All atoms are their own molecule, skipping detailed information


 TOTAL NUMBERS AND MAXIMUM NUMBERS

  Total number of            - Atomic kinds:                                   2
                             - Atoms:                                        192
                             - Shell sets:                                   192
                             - Shells:                                       704
                             - Primitive Cartesian functions:                960
                             - Cartesian basis functions:                   1536
                             - Spherical basis functions:                   1472

  Maximum angular momentum of- Orbital basis functions:                        2
                             - Local part of the GTH pseudopotential:          2
                             - Non-local part of the GTH pseudopotential:      0


 MODULE QUICKSTEP:  ATOMIC COORDINATES IN angstrom

 Atom  Kind  Element       X           Y           Z          Z(eff)       Mass
    1   1 O    8       9.824860   12.413678   13.104010       6.0000     15.9994
    2   2 H    1      10.609500   13.041194   13.034090       1.0000      1.0079
    3   2 H    1       9.122210   13.000644   12.810550       1.0000      1.0079
    4   1 O    8       5.094410    0.540935   18.728680       6.0000     15.9994
    5   2 H    1       4.967550   -0.039400   19.481950       1.0000      1.0079
    6   2 H    1       4.450070    0.340452   17.999910       1.0000      1.0079
    7   1 O    8       2.831940    6.790140   16.369470       6.0000     15.9994
    8   2 H    1       2.366800    6.535670   17.148380       1.0000      1.0079
    9   2 H    1       2.270120    6.555480   15.501840       1.0000      1.0079
   10   1 O    8       1.464240    0.848495   19.957430       6.0000     15.9994
   11   2 H    1       2.173640    0.677080   20.615100       1.0000      1.0079
   12   2 H    1       1.678980    1.766410   19.763070       1.0000      1.0079
   13   1 O    8       9.601340    3.823910   21.793200       6.0000     15.9994
   14   2 H    1       8.623530    3.907720   22.046000       1.0000      1.0079
   15   2 H    1       9.650920    3.365660   20.938000       1.0000      1.0079
   16   1 O    8       8.310210    2.088470   11.465270       6.0000     15.9994
   17   2 H    1       8.793940    1.835570   10.676774       1.0000      1.0079
   18   2 H    1       7.938060    2.960900   11.249320       1.0000      1.0079
   19   1 O    8      10.337400   10.149300   19.882710       6.0000     15.9994
   20   2 H    1      10.239400   11.029500   19.419300       1.0000      1.0079
   21   2 H    1       9.444240   10.080600   20.236000       1.0000      1.0079
   22   1 O    8       7.397880    8.355710   13.957800       6.0000     15.9994
   23   2 H    1       6.826950    9.212470   13.970130       1.0000      1.0079
   24   2 H    1       7.735220    8.359650   13.034420       1.0000      1.0079
   25   1 O    8      11.907500    1.069070   21.980300       6.0000     15.9994
   26   2 H    1      12.609633    1.020900   21.316200       1.0000      1.0079
   27   2 H    1      12.397600    0.744977   22.851666       1.0000      1.0079
   28   1 O    8       6.002270    9.385010   11.411430       6.0000     15.9994
   29   2 H    1       6.216340   10.149600   12.042430       1.0000      1.0079
   30   2 H    1       5.305670    8.788370   11.846790       1.0000      1.0079
   31   1 O    8      10.695900   10.766200   15.481330       6.0000     15.9994
   32   2 H    1      10.757200    9.838900   15.095590       1.0000      1.0079
   33   2 H    1      10.086800   11.123500   14.808420       1.0000      1.0079
   34   1 O    8       8.550980    7.848640   18.652530       6.0000     15.9994
   35   2 H    1       8.264750    8.692680   18.500650       1.0000      1.0079
   36   2 H    1       9.514180    7.888740   18.852770       1.0000      1.0079
   37   1 O    8       2.489770   10.470400   22.289900       6.0000     15.9994
   38   2 H    1       1.716470   10.019400   21.929400       1.0000      1.0079
   39   2 H    1       3.145000    9.782670   22.280419       1.0000      1.0079
   40   1 O    8       4.500430    5.682730   11.003200       6.0000     15.9994
   41   2 H    1       3.853140    4.906800   11.246840       1.0000      1.0079
   42   2 H    1       4.364540    5.654630   10.035452       1.0000      1.0079
   43   1 O    8      12.406900    5.429950   17.779600       6.0000     15.9994
   44   2 H    1      12.717035    5.879820   16.983220       1.0000      1.0079
   45   2 H    1      12.615725    6.208510   18.419360       1.0000      1.0079
   46   1 O    8      10.004700    6.430920   21.170500       6.0000     15.9994
   47   2 H    1       9.882160    5.425510   21.210400       1.0000      1.0079
   48   2 H    1      10.992800    6.497750   21.228300       1.0000      1.0079
   49   1 O    8       8.862270    1.033450   21.275500       6.0000     15.9994
   50   2 H    1       9.876580    0.888707   21.301100       1.0000      1.0079
   51   2 H    1       8.593110    0.262942   21.779400       1.0000      1.0079
   52   1 O    8       3.902170   12.354691   16.230420       6.0000     15.9994
   53   2 H    1       3.156380   11.608300   16.138040       1.0000      1.0079
   54   2 H    1       3.458020   13.170543   16.039050       1.0000      1.0079
   55   1 O    8       1.576410    3.261950   18.700580       6.0000     15.9994
   56   2 H    1       1.992950    2.908450   17.886590       1.0000      1.0079
   57   2 H    1       1.241160    4.086320   18.366610       1.0000      1.0079
   58   1 O    8       1.466540    9.627880   12.913280       6.0000     15.9994
   59   2 H    1       0.958287    8.970990   12.412010       1.0000      1.0079
   60   2 H    1       2.290140    9.213400   12.616110       1.0000      1.0079
   61   1 O    8       0.927242    4.743710   11.772020       6.0000     15.9994
   62   2 H    1       0.280572    4.412510   12.363500       1.0000      1.0079
   63   2 H    1       1.803330    4.515750   12.218790       1.0000      1.0079
   64   1 O    8       1.801910   11.031800   18.445450       6.0000     15.9994
   65   2 H    1       1.231190   10.429600   18.961680       1.0000      1.0079
   66   2 H    1       1.875390   11.797500   19.039780       1.0000      1.0079
   67   1 O    8       3.461150    3.758140   12.601140       6.0000     15.9994
   68   2 H    1       3.468640    2.811480   12.852580       1.0000      1.0079
   69   2 H    1       3.761740    4.173360   13.468470       1.0000      1.0079
   70   1 O    8       8.606040   11.206600   10.728908       6.0000     15.9994
   71   2 H    1       8.225910   10.751700    9.899440       1.0000      1.0079
   72   2 H    1       9.313640   10.592400   10.928092       1.0000      1.0079
   73   1 O    8      11.829100    1.645420   14.124160       6.0000     15.9994
   74   2 H    1      11.356200    2.314950   13.603980       1.0000      1.0079
   75   2 H    1      11.237500    1.388020   14.818230       1.0000      1.0079
   76   1 O    8       8.532700    3.564300   14.206830       6.0000     15.9994
   77   2 H    1       8.850850    4.217830   14.811600       1.0000      1.0079
   78   2 H    1       8.080570    4.127720   13.552820       1.0000      1.0079
   79   1 O    8       0.230829    7.784590   11.138840       6.0000     15.9994
   80   2 H    1      -0.435900    7.297200   11.674360       1.0000      1.0079
   81   2 H    1       1.064410    7.249910   11.176910       1.0000      1.0079
   82   1 O    8      12.168600    0.546536   16.614920       6.0000     15.9994
   83   2 H    1      12.532688   -0.311200   16.415210       1.0000      1.0079
   84   2 H    1      12.880584    1.167680   16.735240       1.0000      1.0079
   85   1 O    8      11.285500    7.484410   14.858860       6.0000     15.9994
   86   2 H    1      10.681800    7.450420   15.722130       1.0000      1.0079
   87   2 H    1      10.701600    7.486620   14.096860       1.0000      1.0079
   88   1 O    8       7.239440    5.100150   10.532030       6.0000     15.9994
   89   2 H    1       6.276380    4.928680   10.745067       1.0000      1.0079
   90   2 H    1       7.532110    5.885740   10.999951       1.0000      1.0079
   91   1 O    8       4.605960    7.969120   14.553510       6.0000     15.9994
   92   2 H    1       5.310300    7.829510   15.275850       1.0000      1.0079
   93   2 H    1       3.834220    7.977740   15.220660       1.0000      1.0079
   94   1 O    8       4.748170    6.851640   19.725890       6.0000     15.9994
   95   2 H    1       5.670010    6.416460   19.576390       1.0000      1.0079
   96   2 H    1       4.276490    6.182660   20.287600       1.0000      1.0079
   97   1 O    8       0.032200    9.649660   21.472700       6.0000     15.9994
   98   2 H    1      -0.846100    9.748160   21.031700       1.0000      1.0079
   99   2 H    1      -0.206000    8.999460   22.202800       1.0000      1.0079
  100   1 O    8      10.778900    3.826110   12.811920       6.0000     15.9994
  101   2 H    1       9.862630    3.677040   13.312820       1.0000      1.0079
  102   2 H    1      10.754100    3.532960   11.906500       1.0000      1.0079
  103   1 O    8       0.978684    6.797380   20.126500       6.0000     15.9994
  104   2 H    1       1.091000    6.212760   20.882900       1.0000      1.0079
  105   2 H    1       0.469379    7.498720   20.501400       1.0000      1.0079
  106   1 O    8       2.380790   10.257700   16.086780       6.0000     15.9994
  107   2 H    1       1.625960   10.277200   16.678970       1.0000      1.0079
  108   2 H    1       2.092200   10.001300   15.208060       1.0000      1.0079
  109   1 O    8       6.460360    5.714770   13.502110       6.0000     15.9994
  110   2 H    1       5.567830    6.011940   13.237360       1.0000      1.0079
  111   2 H    1       6.669980    6.698420   13.733750       1.0000      1.0079
  112   1 O    8       3.396960    4.697060   21.037100       6.0000     15.9994
  113   2 H    1       3.971520    3.961520   20.660200       1.0000      1.0079
  114   2 H    1       2.404190    4.508950   21.041700       1.0000      1.0079
  115   1 O    8       8.067870    7.720590   10.827353       6.0000     15.9994
  116   2 H    1       7.413480    8.402210   10.950164       1.0000      1.0079
  117   2 H    1       8.482720    7.830490    9.877300       1.0000      1.0079
  118   1 O    8       9.997770    0.045684   18.558080       6.0000     15.9994
  119   2 H    1       9.271120    0.743021   18.283710       1.0000      1.0079
  120   2 H    1      10.506600    0.067800   17.772450       1.0000      1.0079
  121   1 O    8       0.442348    4.352330   21.551000       6.0000     15.9994
  122   2 H    1       0.722455    4.210990   22.438200       1.0000      1.0079
  123   2 H    1       0.135200    3.475300   21.287300       1.0000      1.0079
  124   1 O    8      10.953200    2.833070   19.296800       6.0000     15.9994
  125   2 H    1      11.931400    3.155570   19.214740       1.0000      1.0079
  126   2 H    1      10.957000    1.881980   19.358730       1.0000      1.0079
  127   1 O    8       5.381990    3.046330   19.909640       6.0000     15.9994
  128   2 H    1       5.172960    2.140760   19.808410       1.0000      1.0079
  129   2 H    1       6.351040    3.195250   19.851900       1.0000      1.0079
  130   1 O    8       4.619560    9.582370   18.641700       6.0000     15.9994
  131   2 H    1       4.609680    8.675220   18.780240       1.0000      1.0079
  132   2 H    1       3.840310    9.893200   18.186820       1.0000      1.0079
  133   1 O    8       4.185320    4.733870   14.814690       6.0000     15.9994
  134   2 H    1       4.039870    5.407510   15.452330       1.0000      1.0079
  135   2 H    1       5.164360    4.698490   14.678740       1.0000      1.0079
  136   1 O    8       3.761010    7.979690   11.952520       6.0000     15.9994
  137   2 H    1       3.998120    7.042540   11.439450       1.0000      1.0079
  138   2 H    1       4.160920    7.932540   12.844560       1.0000      1.0079
  139   1 O    8      10.592800    6.653270   12.417590       6.0000     15.9994
  140   2 H    1      10.568100    5.634510   12.656240       1.0000      1.0079
  141   2 H    1       9.851690    6.841830   11.775520       1.0000      1.0079
  142   1 O    8      11.584100    8.435890   17.618100       6.0000     15.9994
  143   2 H    1      11.516400    8.795810   18.509680       1.0000      1.0079
  144   2 H    1      11.116800    9.185230   17.103260       1.0000      1.0079
  145   1 O    8       6.776680   11.131100   13.059870       6.0000     15.9994
  146   2 H    1       6.643800   11.730200   13.838080       1.0000      1.0079
  147   2 H    1       7.698840   11.232700   12.780530       1.0000      1.0079
  148   1 O    8       7.859820    1.620080   17.485580       6.0000     15.9994
  149   2 H    1       7.963920    2.560300   17.802290       1.0000      1.0079
  150   2 H    1       7.079740    1.337800   17.972350       1.0000      1.0079
  151   1 O    8       4.280150   11.811200   12.928710       6.0000     15.9994
  152   2 H    1       4.381870   11.593800   13.868000       1.0000      1.0079
  153   2 H    1       3.758690   11.024600   12.587150       1.0000      1.0079
  154   1 O    8       7.235780   10.144500   21.031000       6.0000     15.9994
  155   2 H    1       7.195500   10.644600   20.194700       1.0000      1.0079
  156   2 H    1       6.477450    9.527430   21.179700       1.0000      1.0079
  157   1 O    8       7.835850   10.576800   18.388130       6.0000     15.9994
  158   2 H    1       8.206590   11.474400   18.118750       1.0000      1.0079
  159   2 H    1       6.880670   10.711600   18.245390       1.0000      1.0079
  160   1 O    8       1.242120    6.369550   14.324790       6.0000     15.9994
  161   2 H    1       0.497560    6.956680   14.563950       1.0000      1.0079
  162   2 H    1       0.664757    5.565970   14.169230       1.0000      1.0079
  163   1 O    8       8.821830    4.063420   18.285240       6.0000     15.9994
  164   2 H    1       8.666380    4.583870   19.094220       1.0000      1.0079
  165   2 H    1       9.771020    3.769210   18.432820       1.0000      1.0079
  166   1 O    8       4.263910    0.141116   21.533200       6.0000     15.9994
  167   2 H    1       3.789450   -0.729800   21.747600       1.0000      1.0079
  168   2 H    1       4.825590    0.211511   22.302500       1.0000      1.0079
  169   1 O    8       6.267710    6.952050   16.879590       6.0000     15.9994
  170   2 H    1       5.534510    7.153830   17.555860       1.0000      1.0079
  171   2 H    1       7.028370    6.852710   17.432780       1.0000      1.0079
  172   1 O    8       9.119680    5.847670   15.718230       6.0000     15.9994
  173   2 H    1       8.393290    6.457030   15.995790       1.0000      1.0079
  174   2 H    1       9.464230    5.627880   16.593190       1.0000      1.0079
  175   1 O    8       0.998177   12.001200   11.578950       6.0000     15.9994
  176   2 H    1       1.622930   11.429100   11.064240       1.0000      1.0079
  177   2 H    1       0.658926   11.401300   12.365730       1.0000      1.0079
  178   1 O    8       6.589150   12.247000   15.710110       6.0000     15.9994
  179   2 H    1       7.097940   13.059702   15.816110       1.0000      1.0079
  180   2 H    1       5.591550   12.337357   15.989150       1.0000      1.0079
  181   1 O    8       7.329640    6.135390   20.001300       6.0000     15.9994
  182   2 H    1       7.388750    5.831440   20.914000       1.0000      1.0079
  183   2 H    1       7.973670    6.928610   19.798510       1.0000      1.0079
  184   1 O    8       2.249350    2.441470   15.813370       6.0000     15.9994
  185   2 H    1       1.746150    2.168250   15.025720       1.0000      1.0079
  186   2 H    1       2.767080    3.211710   15.481680       1.0000      1.0079
  187   1 O    8       4.544970    8.951570   21.495800       6.0000     15.9994
  188   2 H    1       5.034280    9.077630   22.344500       1.0000      1.0079
  189   2 H    1       4.900320    8.163630   20.999400       1.0000      1.0079
  190   1 O    8       2.474130    1.452230   13.307100       6.0000     15.9994
  191   2 H    1       3.063100    0.756057   12.983190       1.0000      1.0079
  192   2 H    1       1.754540    1.373570   12.742190       1.0000      1.0079




 SCF PARAMETERS         Density guess:                                   RESTART
                        --------------------------------------------------------
                        max_scf:                                              25
                        max_scf_history:                                       0
                        max_diis:                                              4
                        --------------------------------------------------------
                        eps_scf:                                        1.00E-06
                        eps_scf_history:                                0.00E+00
                        eps_diis:                                       1.00E-01
                        eps_eigval:                                     1.00E-05
                        --------------------------------------------------------
                        level_shift [a.u.]:                             0.000000
                        --------------------------------------------------------
                        Outer loop SCF in use 
                        No variables optimised in outer loop
                        eps_scf                                         1.00E-06
                        max_scf                                               25
                        No outer loop optimization
                        step_size                                       5.00E-01

 PW_GRID| Information for grid number                                          1
 PW_GRID| Grid distributed over                                    64 processors
 PW_GRID| Real space group dimensions                                    64    1
 PW_GRID| the grid is blocked:                                                NO
 PW_GRID| Cutoff [a.u.]                                                    400.0
 PW_GRID| spherical cutoff:                                                   NO
 PW_GRID|   Bounds   1           -108     107                Points:         216
 PW_GRID|   Bounds   2           -108     107                Points:         216
 PW_GRID|   Bounds   3           -288     287                Points:         576
 PW_GRID| Volume element (a.u.^3)  0.1256E-02     Volume (a.u.^3)     33748.3706
 PW_GRID| Grid span                                                    FULLSPACE
 PW_GRID|   Distribution                         Average         Max         Min
 PW_GRID|   G-Vectors                           419904.0      419904      419904
 PW_GRID|   G-Rays                                1944.0        1944        1944
 PW_GRID|   Real Space Points                   419904.0      497664      373248

 PW_GRID| Information for grid number                                          2
 PW_GRID| Number of the reference grid                                         1
 PW_GRID| Grid distributed over                                    64 processors
 PW_GRID| Real space group dimensions                                    64    1
 PW_GRID| the grid is blocked:                                                NO
 PW_GRID| Cutoff [a.u.]                                                    133.3
 PW_GRID| spherical cutoff:                                                   NO
 PW_GRID|   Bounds   1            -62      62                Points:         125
 PW_GRID|   Bounds   2            -62      62                Points:         125
 PW_GRID|   Bounds   3           -160     159                Points:         320
 PW_GRID| Volume element (a.u.^3)  0.6750E-02     Volume (a.u.^3)     33748.3706
 PW_GRID| Grid span                                                    FULLSPACE
 PW_GRID|   Distribution                         Average         Max         Min
 PW_GRID|   G-Vectors                            78125.0       79250       76875
 PW_GRID|   G-Rays                                 625.0         634         615
 PW_GRID|   Real Space Points                    78125.0       80000       40000

 PW_GRID| Information for grid number                                          3
 PW_GRID| Number of the reference grid                                         1
 PW_GRID| Grid distributed over                                    64 processors
 PW_GRID| Real space group dimensions                                    64    1
 PW_GRID| the grid is blocked:                                                NO
 PW_GRID| Cutoff [a.u.]                                                     44.4
 PW_GRID| spherical cutoff:                                                   NO
 PW_GRID|   Bounds   1            -36      35                Points:          72
 PW_GRID|   Bounds   2            -36      35                Points:          72
 PW_GRID|   Bounds   3            -96      95                Points:         192
 PW_GRID| Volume element (a.u.^3)  0.3391E-01     Volume (a.u.^3)     33748.3706
 PW_GRID| Grid span                                                    FULLSPACE
 PW_GRID|   Distribution                         Average         Max         Min
 PW_GRID|   G-Vectors                            15552.0       16200       14832
 PW_GRID|   G-Rays                                 216.0         225         206
 PW_GRID|   Real Space Points                    15552.0       27648       13824

 PW_GRID| Information for grid number                                          4
 PW_GRID| Number of the reference grid                                         1
 PW_GRID| Grid distributed over                                    64 processors
 PW_GRID| Real space group dimensions                                     8    8
 PW_GRID| the grid is blocked:                                                NO
 PW_GRID| Cutoff [a.u.]                                                     14.8
 PW_GRID| spherical cutoff:                                                   NO
 PW_GRID|   Bounds   1            -22      22                Points:          45
 PW_GRID|   Bounds   2            -22      22                Points:          45
 PW_GRID|   Bounds   3            -54      53                Points:         108
 PW_GRID| Volume element (a.u.^3)  0.1543         Volume (a.u.^3)     33748.3706
 PW_GRID| Grid span                                                    FULLSPACE
 PW_GRID|   Distribution                         Average         Max         Min
 PW_GRID|   G-Vectors                             3417.2        3690        3105
 PW_GRID|   G-Rays                                  75.9          82          69
 PW_GRID|   Real Space Points                     3417.2        3888        2700

 PW_GRID| Information for grid number                                          5
 PW_GRID| Number of the reference grid                                         1
 PW_GRID| Grid distributed over                                    64 processors
 PW_GRID| Real space group dimensions                                     8    8
 PW_GRID| the grid is blocked:                                                NO
 PW_GRID| Cutoff [a.u.]                                                      4.9
 PW_GRID| spherical cutoff:                                                   NO
 PW_GRID|   Bounds   1            -12      11                Points:          24
 PW_GRID|   Bounds   2            -12      11                Points:          24
 PW_GRID|   Bounds   3            -32      31                Points:          64
 PW_GRID| Volume element (a.u.^3)  0.9155         Volume (a.u.^3)     33748.3706
 PW_GRID| Grid span                                                    FULLSPACE
 PW_GRID|   Distribution                         Average         Max         Min
 PW_GRID|   G-Vectors                              576.0         720         432
 PW_GRID|   G-Rays                                  24.0          30          18
 PW_GRID|   Real Space Points                      576.0         576         576

 POISSON| Solver                                                        PERIODIC
 POISSON| Periodicity                                                        XYZ

 RS_GRID| Information for grid number                                          1
 RS_GRID|   Bounds   1           -108     107                Points:         216
 RS_GRID|   Bounds   2           -108     107                Points:         216
 RS_GRID|   Bounds   3           -288     287                Points:         576
 RS_GRID| Real space distribution over                                  4 groups
 RS_GRID| Real space distribution along direction                              2
 RS_GRID| Border size                                                         22
 RS_GRID| Real space distribution over                                 16 groups
 RS_GRID| Real space distribution along direction                              3
 RS_GRID| Border size                                                         22
 RS_GRID|   Distribution                         Average         Max         Min
 RS_GRID|   Planes                                  98.0          98          98
 RS_GRID|   Distribution                         Average         Max         Min
 RS_GRID|   Planes                                  80.0          80          80

 RS_GRID| Information for grid number                                          2
 RS_GRID|   Bounds   1            -62      62                Points:         125
 RS_GRID|   Bounds   2            -62      62                Points:         125
 RS_GRID|   Bounds   3           -160     159                Points:         320
 RS_GRID| Real space distribution over                                  4 groups
 RS_GRID| Real space distribution along direction                              2
 RS_GRID| Border size                                                         21
 RS_GRID| Real space distribution over                                 16 groups
 RS_GRID| Real space distribution along direction                              3
 RS_GRID| Border size                                                         21
 RS_GRID|   Distribution                         Average         Max         Min
 RS_GRID|   Planes                                  73.2          74          73
 RS_GRID|   Distribution                         Average         Max         Min
 RS_GRID|   Planes                                  62.0          62          62

 RS_GRID| Information for grid number                                          3
 RS_GRID|   Bounds   1            -36      35                Points:          72
 RS_GRID|   Bounds   2            -36      35                Points:          72
 RS_GRID|   Bounds   3            -96      95                Points:         192
 RS_GRID| Real space fully replicated
 RS_GRID| Group size                                                           1

 RS_GRID| Information for grid number                                          4
 RS_GRID|   Bounds   1            -22      22                Points:          45
 RS_GRID|   Bounds   2            -22      22                Points:          45
 RS_GRID|   Bounds   3            -54      53                Points:         108
 RS_GRID| Real space fully replicated
 RS_GRID| Group size                                                           1

 RS_GRID| Information for grid number                                          5
 RS_GRID|   Bounds   1            -12      11                Points:          24
 RS_GRID|   Bounds   2            -12      11                Points:          24
 RS_GRID|   Bounds   3            -32      31                Points:          64
 RS_GRID| Real space fully replicated
 RS_GRID| Group size                                                           1

 Number of electrons:                                                        512
 Number of occupied orbitals:                                                256
 Number of molecular orbitals:                                               256

 Number of orbital functions:                                               1472
 Number of independent orbital functions:                                   1472

 Extrapolation method: initial_guess


 SCF WAVEFUNCTION OPTIMIZATION

  ----------------------------------- OT ---------------------------------------
  Minimizer      : DIIS                : direct inversion
                                         in the iterative subspace
                                         using   7 DIIS vectors
                                         safer DIIS on
  Preconditioner : FULL_SINGLE_INVERSE : inversion of 
                                         H + eS - 2*(Sc)(c^T*H*c+const)(Sc)^T
  Precond_solver : DEFAULT
  stepsize       :    0.08000000                  energy_gap     :    0.10000000
  eps_taylor     :   0.10000E-15                  max_taylor     :             4
  ----------------------------------- OT ---------------------------------------

  Step     Update method      Time    Convergence         Total energy    Change
  ------------------------------------------------------------------------------
     1 OT DIIS     0.80E-01    1.1     0.09865269      -133.9764515457 -1.34E+02
     2 OT DIIS     0.80E-01    1.2     0.08550726      -406.6518880264 -2.73E+02
     3 OT DIIS     0.80E-01    1.3     0.05730852      -656.7751509913 -2.50E+02
     4 OT DIIS     0.80E-01    1.2     0.04987708      -742.8769552091 -8.61E+01
     5 OT DIIS     0.80E-01    1.2     0.03009912      -885.0369213065 -1.42E+02
     6 OT DIIS     0.80E-01    1.2     0.02336021      -934.1086203990 -4.91E+01
     7 OT DIIS     0.80E-01    1.2     0.01654296      -981.7399119191 -4.76E+01
     8 OT DIIS     0.80E-01    1.2     0.01288438     -1010.0116416627 -2.83E+01
     9 OT DIIS     0.80E-01    1.2     0.00976044     -1035.0124195862 -2.50E+01
    10 OT DIIS     0.80E-01    1.3     0.00803398     -1048.6696628324 -1.37E+01
    11 OT DIIS     0.80E-01    1.2     0.00681001     -1057.7356708236 -9.07E+00
    12 OT DIIS     0.80E-01    1.2     0.00579296     -1065.1692829996 -7.43E+00
    13 OT DIIS     0.80E-01    1.2     0.00497911     -1072.1087587685 -6.94E+00
    14 OT DIIS     0.80E-01    1.2     0.00452643     -1076.4635801918 -4.35E+00
    15 OT DIIS     0.80E-01    1.2     0.00420779     -1078.9550492904 -2.49E+00
    16 OT SD       0.80E-01    1.2     0.00378130     -1081.6324915551 -2.68E+00
    17 OT DIIS     0.80E-01    1.2     0.00372260     -1082.0601025645 -4.28E-01
    18 OT SD       0.80E-01    1.3     0.00275032     -1089.2798996983 -7.22E+00
    19 OT DIIS     0.80E-01    1.2     0.00270124     -1089.5057957950 -2.26E-01
    20 OT DIIS     0.80E-01    1.2     0.00253986     -1091.2725339765 -1.77E+00
    21 OT DIIS     0.80E-01    1.2     0.00245480     -1091.7039667689 -4.31E-01
    22 OT DIIS     0.80E-01    1.2     0.00217026     -1093.3306591730 -1.63E+00
    23 OT SD       0.80E-01    1.2     0.00218575     -1093.7517542312 -4.21E-01
    24 OT DIIS     0.80E-01    1.2     0.00212969     -1093.8938182021 -1.42E-01
    25 OT DIIS     0.80E-01    1.2     0.00163934     -1096.4408263261 -2.55E+00

  Leaving inner SCF loop after reaching    25 steps.


  Electronic density on regular grids:       -512.0000000000        0.0000000000
  Core density on regular grids:              512.0000000000       -0.0000000000
  Total charge density on r-space grids:       -0.0000000000
  Total charge density g-space grids:          -0.0000000000

  Overlap energy of the core charge distribution:               0.00000288297199
  Self energy of the core charge distribution:              -2838.21791979120962
  Core Hamiltonian energy:                                    835.38119000622453
  Hartree energy:                                            1177.11180807993628
  Exchange-correlation energy:                               -270.50218227897744
  Dispersion energy:                                           -0.21372522507193

  Total energy:                                             -1096.44082632612640

  outer SCF iter =    1 RMS gradient =   0.16E-02 energy =      -1096.4408263261

  ----------------------------------- OT ---------------------------------------
  Minimizer      : DIIS                : direct inversion
                                         in the iterative subspace
                                         using   7 DIIS vectors
                                         safer DIIS on
  Preconditioner : FULL_SINGLE_INVERSE : inversion of 
                                         H + eS - 2*(Sc)(c^T*H*c+const)(Sc)^T
  Precond_solver : DEFAULT
  stepsize       :    0.08000000                  energy_gap     :    0.10000000
  eps_taylor     :   0.10000E-15                  max_taylor     :             4
  ----------------------------------- OT ---------------------------------------

  Step     Update method      Time    Convergence         Total energy    Change
  ------------------------------------------------------------------------------
     1 OT DIIS     0.80E-01    2.6     0.00911025     -1096.3194275682  1.21E-01
     2 OT DIIS     0.80E-01    1.2     0.00809994     -1098.6177088538 -2.30E+00
     3 OT DIIS     0.80E-01    1.2     0.00649185     -1100.6622691580 -2.04E+00
     4 OT DIIS     0.80E-01    1.2     0.00469512     -1102.0295481104 -1.37E+00
     5 OT DIIS     0.80E-01    1.3     0.00360877     -1102.4733117893 -4.44E-01
     6 OT DIIS     0.80E-01    1.2     0.00187732     -1102.7482671637 -2.75E-01
     7 OT DIIS     0.80E-01    1.2     0.00127920     -1102.8107459643 -6.25E-02
     8 OT DIIS     0.80E-01    1.2     0.00124250     -1102.8135626740 -2.82E-03
     9 OT DIIS     0.80E-01    1.2     0.00091418     -1102.8370397308 -2.35E-02
    10 OT DIIS     0.80E-01    1.2     0.00026562     -1102.8495744322 -1.25E-02
    11 OT DIIS     0.80E-01    1.2     0.00019194     -1102.8528746085 -3.30E-03
    12 OT DIIS     0.80E-01    1.2     0.00013447     -1102.8551535163 -2.28E-03
    13 OT DIIS     0.80E-01    1.2     0.00009476     -1102.8564356708 -1.28E-03
    14 OT DIIS     0.80E-01    1.2     0.00006356     -1102.8572119286 -7.76E-04
    15 OT DIIS     0.80E-01    1.2     0.00004362     -1102.8575534582 -3.42E-04
    16 OT DIIS     0.80E-01    1.2     0.00002865     -1102.8577177087 -1.64E-04
    17 OT DIIS     0.80E-01    1.2     0.00001928     -1102.8577860560 -6.83E-05
    18 OT DIIS     0.80E-01    1.2     0.00001453     -1102.8578142555 -2.82E-05
    19 OT DIIS     0.80E-01    1.2     0.00001114     -1102.8578316194 -1.74E-05
    20 OT DIIS     0.80E-01    1.2     0.00000863     -1102.8578420249 -1.04E-05
    21 OT DIIS     0.80E-01    1.2     0.00000649     -1102.8578491111 -7.09E-06
    22 OT DIIS     0.80E-01    1.2     0.00000496     -1102.8578530540 -3.94E-06
    23 OT DIIS     0.80E-01    1.2     0.00000402     -1102.8578550338 -1.98E-06
    24 OT DIIS     0.80E-01    1.2     0.00000342     -1102.8578561938 -1.16E-06
    25 OT DIIS     0.80E-01    1.2     0.00000297     -1102.8578570721 -8.78E-07

  Leaving inner SCF loop after reaching    25 steps.


  Electronic density on regular grids:       -512.0000000000        0.0000000000
  Core density on regular grids:              512.0000000000       -0.0000000000
  Total charge density on r-space grids:       -0.0000000000
  Total charge density g-space grids:          -0.0000000000

  Overlap energy of the core charge distribution:               0.00000288297199
  Self energy of the core charge distribution:              -2838.21791979120962
  Core Hamiltonian energy:                                    826.13520366974171
  Hartree energy:                                            1180.46852625922475
  Exchange-correlation energy:                               -271.02994486780210
  Dispersion energy:                                           -0.21372522507193

  Total energy:                                             -1102.85785707214541

  outer SCF iter =    2 RMS gradient =   0.30E-05 energy =      -1102.8578570721

  ----------------------------------- OT ---------------------------------------
  Minimizer      : DIIS                : direct inversion
                                         in the iterative subspace
                                         using   7 DIIS vectors
                                         safer DIIS on
  Preconditioner : FULL_SINGLE_INVERSE : inversion of 
                                         H + eS - 2*(Sc)(c^T*H*c+const)(Sc)^T
  Precond_solver : DEFAULT
  stepsize       :    0.08000000                  energy_gap     :    0.10000000
  eps_taylor     :   0.10000E-15                  max_taylor     :             4
  ----------------------------------- OT ---------------------------------------

  Step     Update method      Time    Convergence         Total energy    Change
  ------------------------------------------------------------------------------
     1 OT DIIS     0.80E-01    2.5     0.00001143     -1102.8578578794 -8.07E-07
     2 OT DIIS     0.80E-01    1.2     0.00000801     -1102.8578612274 -3.35E-06
     3 OT DIIS     0.80E-01    1.2     0.00000100     -1102.8578644960 -3.27E-06

  *** SCF run converged in     3 steps ***


  Electronic density on regular grids:       -512.0000000000        0.0000000000
  Core density on regular grids:              512.0000000000       -0.0000000000
  Total charge density on r-space grids:       -0.0000000000
  Total charge density g-space grids:          -0.0000000000

  Overlap energy of the core charge distribution:               0.00000288297199
  Self energy of the core charge distribution:              -2838.21791979120962
  Core Hamiltonian energy:                                    826.13509813754331
  Hartree energy:                                            1180.46860415383435
  Exchange-correlation energy:                               -271.02992465405777
  Dispersion energy:                                           -0.21372522507193

  Total energy:                                             -1102.85786449599004

  outer SCF iter =    3 RMS gradient =   0.10E-05 energy =      -1102.8578644960
  outer SCF loop converged in   3 iterations or   53 steps


 !-----------------------------------------------------------------------------!
                     Mulliken Population Analysis

 #  Atom  Element  Kind  Atomic population                           Net charge
       1     O        1          6.296867                             -0.296867
       2     H        2          0.860798                              0.139202
       3     H        2          0.867826                              0.132174
       4     O        1          6.299307                             -0.299307
       5     H        2          0.860157                              0.139843
       6     H        2          0.851319                              0.148681
       7     O        1          6.331640                             -0.331640
       8     H        2          0.885453                              0.114547
       9     H        2          0.838688                              0.161312
      10     O        1          6.254168                             -0.254168
      11     H        2          0.844907                              0.155093
      12     H        2          0.867610                              0.132390
      13     O        1          6.257692                             -0.257692
      14     H        2          0.839823                              0.160177
      15     H        2          0.851626                              0.148374
      16     O        1          6.257302                             -0.257302
      17     H        2          0.870197                              0.129803
      18     H        2          0.871884                              0.128116
      19     O        1          6.295841                             -0.295841
      20     H        2          0.847353                              0.152647
      21     H        2          0.852298                              0.147702
      22     O        1          6.302441                             -0.302441
      23     H        2          0.815550                              0.184450
      24     H        2          0.859472                              0.140528
      25     O        1          6.315700                             -0.315700
      26     H        2          0.883022                              0.116978
      27     H        2          0.817966                              0.182034
      28     O        1          6.355363                             -0.355363
      29     H        2          0.863045                              0.136955
      30     H        2          0.866135                              0.133865
      31     O        1          6.291541                             -0.291541
      32     H        2          0.864428                              0.135572
      33     H        2          0.856876                              0.143124
      34     O        1          6.203242                             -0.203242
      35     H        2          0.878941                              0.121059
      36     H        2          0.841200                              0.158800
      37     O        1          6.264940                             -0.264940
      38     H        2          0.879623                              0.120377
      39     H        2          0.894841                              0.105159
      40     O        1          6.265735                             -0.265735
      41     H        2          0.804005                              0.195995
      42     H        2          0.833955                              0.166045
      43     O        1          6.291396                             -0.291396
      44     H        2          0.870856                              0.129144
      45     H        2          0.831798                              0.168202
      46     O        1          6.321009                             -0.321009
      47     H        2          0.865759                              0.134241
      48     H        2          0.881652                              0.118348
      49     O        1          6.295030                             -0.295030
      50     H        2          0.837831                              0.162169
      51     H        2          0.881551                              0.118449
      52     O        1          6.331129                             -0.331129
      53     H        2          0.828471                              0.171529
      54     H        2          0.864722                              0.135278
      55     O        1          6.271727                             -0.271727
      56     H        2          0.849587                              0.150413
      57     H        2          0.875538                              0.124462
      58     O        1          6.293947                             -0.293947
      59     H        2          0.868620                              0.131380
      60     H        2          0.880717                              0.119283
      61     O        1          6.279810                             -0.279810
      62     H        2          0.919050                              0.080950
      63     H        2          0.861267                              0.138733
      64     O        1          6.261782                             -0.261782
      65     H        2          0.863917                              0.136083
      66     H        2          0.872492                              0.127508
      67     O        1          6.320712                             -0.320712
      68     H        2          0.861498                              0.138502
      69     H        2          0.874066                              0.125934
      70     O        1          6.261675                             -0.261675
      71     H        2          0.847332                              0.152668
      72     H        2          0.875499                              0.124501
      73     O        1          6.249357                             -0.249357
      74     H        2          0.894218                              0.105782
      75     H        2          0.867939                              0.132061
      76     O        1          6.204911                             -0.204911
      77     H        2          0.872568                              0.127432
      78     H        2          0.848596                              0.151404
      79     O        1          6.305653                             -0.305653
      80     H        2          0.864600                              0.135400
      81     H        2          0.847079                              0.152921
      82     O        1          6.235030                             -0.235030
      83     H        2          0.866720                              0.133280
      84     H        2          0.874092                              0.125908
      85     O        1          6.319395                             -0.319395
      86     H        2          0.812187                              0.187813
      87     H        2          0.854860                              0.145140
      88     O        1          6.311588                             -0.311588
      89     H        2          0.857782                              0.142218
      90     H        2          0.876191                              0.123809
      91     O        1          6.323935                             -0.323935
      92     H        2          0.830764                              0.169236
      93     H        2          0.838425                              0.161575
      94     O        1          6.338980                             -0.338980
      95     H        2          0.839093                              0.160907
      96     H        2          0.844834                              0.155166
      97     O        1          6.302513                             -0.302513
      98     H        2          0.861702                              0.138298
      99     H        2          0.849149                              0.150851
     100     O        1          6.340851                             -0.340851
     101     H        2          0.829515                              0.170485
     102     H        2          0.839291                              0.160709
     103     O        1          6.219299                             -0.219299
     104     H        2          0.875278                              0.124722
     105     H        2          0.903505                              0.096495
     106     O        1          6.210657                             -0.210657
     107     H        2          0.862555                              0.137445
     108     H        2          0.854995                              0.145005
     109     O        1          6.307003                             -0.307003
     110     H        2          0.866713                              0.133287
     111     H        2          0.846408                              0.153592
     112     O        1          6.333562                             -0.333562
     113     H        2          0.841592                              0.158408
     114     H        2          0.860806                              0.139194
     115     O        1          6.330192                             -0.330192
     116     H        2          0.875192                              0.124808
     117     H        2          0.815415                              0.184585
     118     O        1          6.298100                             -0.298100
     119     H        2          0.827011                              0.172989
     120     H        2          0.863112                              0.136888
     121     O        1          6.235695                             -0.235695
     122     H        2          0.866731                              0.133269
     123     H        2          0.856783                              0.143217
     124     O        1          6.283160                             -0.283160
     125     H        2          0.823454                              0.176546
     126     H        2          0.855301                              0.144699
     127     O        1          6.246052                             -0.246052
     128     H        2          0.880096                              0.119904
     129     H        2          0.865993                              0.134007
     130     O        1          6.224226                             -0.224226
     131     H        2          0.916185                              0.083815
     132     H        2          0.875560                              0.124440
     133     O        1          6.239905                             -0.239905
     134     H        2          0.864480                              0.135520
     135     H        2          0.833737                              0.166263
     136     O        1          6.379854                             -0.379854
     137     H        2          0.823131                              0.176869
     138     H        2          0.881269                              0.118731
     139     O        1          6.319930                             -0.319930
     140     H        2          0.818388                              0.181612
     141     H        2          0.839208                              0.160792
     142     O        1          6.287746                             -0.287746
     143     H        2          0.887499                              0.112501
     144     H        2          0.836012                              0.163988
     145     O        1          6.238527                             -0.238527
     146     H        2          0.844605                              0.155395
     147     H        2          0.856492                              0.143508
     148     O        1          6.275931                             -0.275931
     149     H        2          0.851334                              0.148666
     150     H        2          0.858631                              0.141369
     151     O        1          6.248710                             -0.248710
     152     H        2          0.861481                              0.138519
     153     H        2          0.844418                              0.155582
     154     O        1          6.303883                             -0.303883
     155     H        2          0.869826                              0.130174
     156     H        2          0.877736                              0.122264
     157     O        1          6.280856                             -0.280856
     158     H        2          0.834814                              0.165186
     159     H        2          0.844769                              0.155231
     160     O        1          6.243482                             -0.243482
     161     H        2          0.862163                              0.137837
     162     H        2          0.841960                              0.158040
     163     O        1          6.294700                             -0.294700
     164     H        2          0.868742                              0.131258
     165     H        2          0.848444                              0.151556
     166     O        1          6.297834                             -0.297834
     167     H        2          0.845015                              0.154985
     168     H        2          0.875474                              0.124526
     169     O        1          6.265685                             -0.265685
     170     H        2          0.843702                              0.156298
     171     H        2          0.890858                              0.109142
     172     O        1          6.253743                             -0.253743
     173     H        2          0.847609                              0.152391
     174     H        2          0.859898                              0.140102
     175     O        1          6.343562                             -0.343562
     176     H        2          0.854622                              0.145378
     177     H        2          0.814023                              0.185977
     178     O        1          6.332307                             -0.332307
     179     H        2          0.862970                              0.137030
     180     H        2          0.839284                              0.160716
     181     O        1          6.326791                             -0.326791
[...]
    169      1      O          -0.05120916     0.01022785     0.00677199
    170      2      H           0.02197489    -0.00910668    -0.02492961
    171      2      H           0.02423390    -0.00099537     0.01801132
    172      1      O          -0.01086717     0.01655019     0.00813666
    173      2      H           0.00245163    -0.00747714    -0.01564827
    174      2      H           0.00683062    -0.01166666     0.00955846
    175      1      O          -0.01092074    -0.02134103     0.02424188
    176      2      H          -0.01554671     0.00600848     0.01477560
    177      2      H           0.02566596     0.02257775    -0.04332766
    178      1      O          -0.03138956    -0.01882612    -0.00520388
    179      2      H          -0.00522487     0.01086882     0.00676266
    180      2      H           0.03540201     0.00573609    -0.00971148
    181      1      O           0.00827641     0.00132022    -0.00948584
    182      2      H           0.00408802     0.00766537     0.00524155
    183      2      H          -0.01691679    -0.01896635     0.00539599
    184      1      O           0.00464360     0.01182466     0.01232993
    185      2      H          -0.00109746    -0.00651347    -0.00683791
    186      2      H           0.00098564    -0.00614532     0.00371615
    187      1      O           0.01505704     0.00518013     0.02081719
    188      2      H          -0.00399208    -0.01159987    -0.01395463
    189      2      H          -0.00729165    -0.00340511     0.00091653
    190      1      O           0.03947548     0.01230020     0.03622328
    191      2      H           0.01394988    -0.01930750     0.00209568
    192      2      H          -0.05371681    -0.00635286    -0.03920840
 SUM OF ATOMIC FORCES          -0.00173605     0.00197509     0.00172545     0.00314516

 -------------------------------------------------------------------------------
 -                                                                             -
 -                                DBCSR STATISTICS                             -
 -                                                                             -
 -------------------------------------------------------------------------------
 COUNTER                                    TOTAL       BLAS       SMM       ACC
 flops     5 x    32 x    32            283115520       0.0%    100.0%      0.0%
 flops    13 x    32 x    32            368050176       0.0%    100.0%      0.0%
 flops     5 x     5 x    32           6126438400       0.0%    100.0%      0.0%
 flops    13 x     5 x    32           7801930240       0.0%    100.0%      0.0%
 flops     5 x    13 x    32           7803760640       0.0%    100.0%      0.0%
 flops    13 x    13 x    32           9629701120       0.0%    100.0%      0.0%
 flops    32 x    32 x    32          14998831104       0.0%    100.0%      0.0%
 flops     5 x    32 x     5          26411212800       0.0%    100.0%      0.0%
 flops    13 x    32 x     5          33877509120       0.0%    100.0%      0.0%
 flops     5 x    32 x    13          33877509120       0.0%    100.0%      0.0%
 flops    32 x    32 x   184          40649621504       0.0%    100.0%      0.0%
 flops    13 x    32 x    13          40949895168       0.0%    100.0%      0.0%
 flops   184 x    32 x    32          49970937856       0.0%    100.0%      0.0%
 flops   184 x    32 x   184          62126030848       0.0%    100.0%      0.0%
 flops inhomo. stacks                           0       0.0%      0.0%      0.0%
 flops total                       334.874544E+09       0.0%    100.0%      0.0%
 flops max/rank                      5.304692E+09       0.0%    100.0%      0.0%
 matmuls inhomo. stacks                         0       0.0%      0.0%      0.0%
 matmuls total                           45590520       0.0%    100.0%      0.0%
 number of processed stacks                878304       0.0%    100.0%      0.0%
 average stack size                                     0.0      51.9       0.0
 marketing flops                   373.863481E+09
 -------------------------------------------------------------------------------
 # multiplications                           1167
 max memory usage/rank               1.257202E+09
 # max total images/rank                        1
 # max 3D layers                                1
 # MPI messages exchanged                 1045632
 MPI messages size (bytes):
  total size                        46.645567E+09
  min size                           0.000000E+00
  max size                         270.848000E+03
  average size                      44.609926E+03
 MPI breakdown and total messages size (bytes):
             size <=      128                3864                        0
       128 < size <=     8192              518056               4243914752
      8192 < size <=    32768                   0                        0
     32768 < size <=   131072              442176              20828258304
    131072 < size <=  4194304               81536              21573360928
   4194304 < size <= 16777216                   0                        0
  16777216 < size                               0                        0
 -------------------------------------------------------------------------------
 -                                                                             -
 -                      DBCSR MESSAGE PASSING PERFORMANCE                      -
 -                                                                             -
 -------------------------------------------------------------------------------
 ROUTINE             CALLS      AVE VOLUME [Bytes]
 MP_Bcast               15                     12.
 MP_Allreduce         6282                     16.
 MP_Alltoall          4201                  10416.
 MP_ISend            37332                  19960.
 MP_IRecv            37332                  19964.
 -------------------------------------------------------------------------------

 -------------------------------------------------------------------------------
 -                                                                             -
 -                                DBM STATISTICS                               -
 -                                                                             -
 -------------------------------------------------------------------------------
    M  x    N  x    K                                          COUNT     PERCENT
 -------------------------------------------------------------------------------

 -------------------------------------------------------------------------------
 -                                                                             -
 -                                GRID STATISTICS                              -
 -                                                                             -
 -------------------------------------------------------------------------------
 LP    KERNEL             BACKEND                              COUNT     PERCENT
 2     collocate ortho    REF                                7635438      27.07%
 2     integrate ortho    REF                                7494041      26.57%
 3     integrate ortho    REF                                5524660      19.59%
 3     collocate ortho    REF                                5484834      19.45%
 4     integrate ortho    REF                                1040095       3.69%
 4     collocate ortho    REF                                 956232       3.39%
 0     collocate general  REF                                  24576       0.09%
 5     integrate ortho    REF                                  17708       0.06%
 0     integrate general  REF                                  12288       0.04%
 1     integrate general  REF                                  12288       0.04%
 -------------------------------------------------------------------------------

 MEMORY| Estimated peak process memory [MiB]                                1206

 -------------------------------------------------------------------------------
 ----                             MULTIGRID INFO                            ----
 -------------------------------------------------------------------------------
 count for grid        1:         227819          cutoff [a.u.]          400.00
 count for grid        2:         187378          cutoff [a.u.]          133.33
 count for grid        3:         163361          cutoff [a.u.]           44.44
 count for grid        4:         141139          cutoff [a.u.]           14.81
 count for grid        5:          65825          cutoff [a.u.]            4.94
 total gridlevel count  :         785522

 -------------------------------------------------------------------------------
 -                                                                             -
 -                         MESSAGE PASSING PERFORMANCE                         -
 -                                                                             -
 -------------------------------------------------------------------------------

 ROUTINE             CALLS      AVE VOLUME [Bytes]
 MP_Group                5
 MP_Bcast             5284                  63861.
 MP_Allreduce        12742                    755.
 MP_Sync               108
 MP_Alltoall          1370               11295064.
 MP_SendRecv          1890                  25004.
 MP_ISendRecv        20412                  85632.
 MP_Wait             36356
 MP_comm_split          51
 MP_ISend            15176                 130885.
 MP_IRecv            15176                 130885.
 MP_Recv                21                 376832.
 MP_Write_All            1                 819072.
 -------------------------------------------------------------------------------


 -------------------------------------------------------------------------------
 -                                                                             -
 -                           R E F E R E N C E S                               -
 -                                                                             -
 -------------------------------------------------------------------------------
 
 CP2K version 2022.1, the CP2K developers group (2022).
 CP2K is freely available from https://www.cp2k.org/ .

 Kuehne,Thomas D.; Iannuzzi,Marcella; Del Ben,Mauro;
 Rybkin,Vladimir V.; Seewald,Patrick; Stein,Frederick; Laino,Teodoro;
 Khaliullin,Rustam Z.; Schuett,Ole; Schiffmann,Florian; Golze,Dorothea;
 Wilhelm,Jan; Chulkov,Sergey; Bani-Hashemian,Mohammad Hossein;
 Weber,Valery; Borstnik,Urban; Taillefumier,Mathieu;
 Jakobovits,Alice Shoshana; Lazzaro,Alfio; Pabst,Hans; Mueller,Tiziano;
 Schade,Robert; Guidon,Manuel; Andermatt,Samuel; Holmberg,Nico;
 Schenter,Gregory K.; Hehn,Anna; Bussy,Augustin; Belleflamme,Fabian;
 Tabacchi,Gloria; Gloess,Andreas; Lass,Michael; Bethune,Iain;
 Mundy,Christopher J.; Plessl,Christian; Watkins,Matt;
 VandeVondele,Joost; Krack,Matthias; Hutter,Juerg. 
 The Journal of Chemical Physics, 152 (19), (2020). 
 CP2K: An electronic structure and molecular dynamics software package -
 Quickstep: Efficient and accurate electronic structure calculations.
 https://doi.org/10.1063/5.0007045

 Goerigk, Lars; Hansen, Andreas; Bauer, Christoph; Ehrlich, Stephan;
 Najibi, Asim; Grimme, Stefan. , 19 (48), (2017). 
 A look at the density functional theory zoo with the advanced GMTKN55 database
 for general main group thermochemistry, kinetics and noncovalent interactions.
 https://doi.org/10.1039/C7CP04913G

 Schuett, Ole; Messmer, Peter; Hutter, Juerg; VandeVondele, Joost. 
 Electronic Structure Calculations on Graphics Processing Units, John
 Wiley & Sons, Ltd, 173-190 (2016). 
 GPU-Accelerated Sparse Matrix-Matrix Multiplication for
 Linear Scaling Density Functional Theory.
 https://doi.org/10.1002/9781118670712.ch8

 Heinecke, A; Henry, G; Hutchinson, M; Pabst, H. 
 Proceedings of Intl. Supercomputing Conference, 981-991 (2016). 
 LIBXSMM: Accelerating Small Matrix Multiplications
 by Runtime Code Generation.
 https://doi.org/10.1109/SC.2016.83

 Borstnik, U; VandeVondele, J; Weber, V; Hutter, J. 
 PARALLEL COMPUTING, 40 (5-6), 47-58 (2014). 
 Sparse matrix multiplication: The distributed block-compressed sparse
 row library.
 https://doi.org/10.1016/j.parco.2014.03.012

 Hutter, J; Iannuzzi, M; Schiffmann, F; VandeVondele, J. 
 WIREs Comput Mol Sci., 4 (1), 15-25 (2014). 
 CP2K: atomistic simulations of condensed matter systems.
 https://doi.org/10.1002/wcms.1159

 Marek, A; Blum, V; Johanni, R; Havu, V; Lang, B; Auckenthaler, T;
 Heinecke, A; Bungartz, H; Lederer, H. 
 Journal of Physics: Condensed Matter, 26 (21), (2014). 
 The ELPA library: scalable parallel eigenvalue solutions for
 electronic structure
 theory and computational science.
 https://doi.org/10.1088/0953-8984/26/21/213201

 Grimme, S; Ehrlich, S; Goerigk, L. 
 JOURNAL OF COMPUTATIONAL CHEMISTRY, 32, 1456 (2011). 
 Effect of the damping function in dispersion corrected density functional theory.
 https://doi.org/10.1002/jcc.21759

 Grimme, S; Antony, J; Ehrlich, S; Krieg, H. 
 JOURNAL OF CHEMICAL PHYSICS, 132 (15), 154104 (2010). 
 A consistent and accurate ab initio parametrization of density
 functional dispersion correction (DFT-D) for the 94 elements H-Pu.
 https://doi.org/10.1063/1.3382344

 VandeVondele, J; Hutter, J. 
 JOURNAL OF CHEMICAL PHYSICS, 127 (11), 114105 (2007). 
 Gaussian basis sets for accurate calculations on molecular systems in
 gas and condensed phases.
 https://doi.org/10.1063/1.2770708

 Krack, M. 
 THEORETICAL CHEMISTRY ACCOUNTS, 114 (1-3), 145-152 (2005). 
 Pseudopotentials for H to Kr optimized for gradient-corrected
 exchange-correlation functionals.
 https://doi.org/10.1007/s00214-005-0655-y

 VandeVondele, J; Krack, M; Mohamed, F; Parrinello, M; Chassaing, T;
 Hutter, J. COMPUTER PHYSICS COMMUNICATIONS, 167 (2), 103-128 (2005). 
 QUICKSTEP: Fast and accurate density functional calculations using a
 mixed Gaussian and plane waves approach.
 https://doi.org/10.1016/j.cpc.2004.12.014

 Frigo, M; Johnson, SG. 
 PROCEEDINGS OF THE IEEE, 93 (2), 216-231 (2005). 
 The design and implementation of FFTW3.
 https://doi.org/10.1109/JPROC.2004.840301

 VandeVondele, J; Hutter, J. 
 JOURNAL OF CHEMICAL PHYSICS, 118 (10), 4365-4369 (2003). 
 An efficient orbital transformation method for electronic structure
 calculations.
 https://doi.org/10.1063/1.1543154

 Hartwigsen, C; Goedecker, S; Hutter, J. 
 PHYSICAL REVIEW B, 58 (7), 3641-3662 (1998). 
 Relativistic separable dual-space Gaussian pseudopotentials from H to Rn.
 https://doi.org/10.1103/PhysRevB.58.3641

 Lippert, G; Hutter, J; Parrinello, M. 
 MOLECULAR PHYSICS, 92 (3), 477-487 (1997). 
 A hybrid Gaussian and plane wave density functional scheme.
 https://doi.org/10.1080/002689797170220

 Perdew, JP; Burke, K; Ernzerhof, M. 
 PHYSICAL REVIEW LETTERS, 77 (18), 3865-3868 (1996). 
 Generalized gradient approximation made simple.
 https://doi.org/10.1103/PhysRevLett.77.3865

 Goedecker, S; Teter, M; Hutter, J. 
 PHYSICAL REVIEW B, 54 (3), 1703-1710 (1996). 
 Separable dual-space Gaussian pseudopotentials.
 https://doi.org/10.1103/PhysRevB.54.1703


 -------------------------------------------------------------------------------
 -                                                                             -
 -                                T I M I N G                                  -
 -                                                                             -
 -------------------------------------------------------------------------------
 SUBROUTINE                       CALLS  ASD         SELF TIME        TOTAL TIME
                                MAXIMUM       AVERAGE  MAXIMUM  AVERAGE  MAXIMUM
 CP2K                                 1  1.0    0.017    0.024   68.994   68.995
 qs_forces                            1  2.0    0.002    0.002   68.658   68.659
 qs_energies                          1  3.0    0.001    0.001   67.516   67.516
 scf_env_do_scf                       1  4.0    0.000    0.000   65.860   65.861
 scf_env_do_scf_inner_loop           53  5.0    0.002    0.004   62.775   62.783
 rebuild_ks_matrix                   54  6.9    0.000    0.000   48.397   48.402
 qs_ks_build_kohn_sham_matrix        54  7.9    0.008    0.012   48.396   48.402
 qs_ks_update_qs_env                 56  6.0    0.000    0.000   47.415   47.421
 pw_transfer                       1135 11.1    0.079    0.104   30.909   31.506
 fft_wrap_pw1pw2                   1027 12.2    0.009    0.018   30.521   31.118
 qs_vxc_create                       54  8.9    0.001    0.002   30.265   30.449
 xc_vxc_pw_create                    54  9.9    0.567    0.586   30.264   30.448
 fft_wrap_pw1pw2_400                595 13.7    2.849    3.131   29.196   29.758
 fft3d_ps                          1027 14.2   11.233   12.387   22.215   22.952
 xc_pw_derive                       324 11.9    0.005    0.008   20.027   20.924
 xc_rho_set_and_dset_create          54 10.9    0.297    0.320   15.748   16.662
 qs_rho_update_rho_low               54  6.0    0.000    0.000   16.292   16.301
 calculate_rho_elec                  54  7.0    0.144    0.169   16.291   16.301
 xc_pw_divergence                    54 10.9    0.003    0.003   13.514   14.122
 sum_up_and_integrate                54  8.9    0.255    0.317   13.917   13.931
 integrate_v_rspace                  54  9.9    0.001    0.002   13.662   13.701
 density_rs2pw                       54  8.0    0.004    0.004   10.315   10.710
 mp_alltoall_z22v                  1027 16.2    7.756    9.314    7.756    9.314
 rs_pw_transfer                     544 10.5    0.005    0.006    9.021    9.249
 potential_pw2rs                     54 10.9    0.022    0.026    8.245    8.283
 yz_to_x                            379 15.1    1.055    1.229    5.250    6.452
 xc_functional_eval                  54 11.9    0.001    0.001    5.350    6.314
 pbe_lda_eval                        54 12.9    5.350    6.313    5.350    6.313
 x_to_yz                            432 15.6    2.058    2.575    5.605    5.859
 grid_collocate_task_list            54  8.0    5.542    5.852    5.542    5.852
 grid_integrate_task_list            54 10.9    5.134    5.279    5.134    5.279
 pw_derive                          324 12.9    3.207    3.473    3.207    3.473
 pw_scatter_p                       540 14.7    2.896    3.096    2.896    3.096
 init_scf_loop                        3  5.0    0.000    0.001    3.076    3.077
 rs_pw_transfer_PW2RS_400            56 12.8    1.502    1.573    2.963    3.045
 pw_gather_p                        487 13.6    2.404    2.642    2.404    2.642
 mp_waitany                       15176 12.4    2.243    2.626    2.243    2.626
 rs_pw_transfer_RS2PW_400            56  9.9    1.280    1.366    2.290    2.492
 qs_scf_new_mos                      53  6.0    0.000    0.000    2.058    2.069
 qs_scf_loop_do_ot                   53  7.0    0.001    0.003    2.057    2.069
 ot_scf_mini                         53  8.0    0.001    0.003    1.928    1.934
 dbcsr_multiply_generic            1167 11.1    0.042    0.046    1.762    1.780
 -------------------------------------------------------------------------------

 The number of warnings for this run is : 0
 
 -------------------------------------------------------------------------------
  **** **** ******  **  PROGRAM ENDED AT                 2024-07-25 23:28:12.797
 ***** ** ***  *** **   PROGRAM RAN ON                                     cu028
 **    ****   ******    PROGRAM RAN BY                                     jxzhu
 ***** **    ** ** **   PROGRAM PROCESS ID                                 18031
  **** **  *******  **  PROGRAM STOPPED IN /public/home/jxzhu/workspace/2022_lei
                                           den/pub_repo/06.orient_eps/02.V_hartr
                                           ee_from_mlwc
