816
Lattice="12.745532 0.0 0.0 0.0 13.399023 0.0 0.0 0.0 50.6" Properties=species:S:1:pos:R:3 i=1 time=0.0 E=-6613.7987100669 pbc="T T T"
Sn      -1.06600000       7.35285000       2.24313000
Sn      -1.09446000       3.96020000       5.60927000
Sn      -1.04941000       7.28141000       9.07306000
Sn      -1.01083000       3.82041000      12.38357000
Sn      -1.03432000       7.00958000      15.89816000
Sn       0.44271000       3.93130000       2.17526000
Sn       0.60764000       7.30126000       5.60297000
Sn       0.55057000       3.96737000       9.01663000
Sn       0.56763000       7.26289000      12.48918000
Sn       0.65988000       3.84278000      15.86345000
O       -1.05378000       3.68803000       0.70985000
O       -1.05646000       7.26744000       4.24966000
O       -0.96318000       3.75899000       7.63662000
O       -1.12567000       7.36437000      11.16600000
O       -0.99545000       3.57297000      14.42718000
O       -1.08574000       3.92842000       3.54421000
O       -1.04235000       7.45007000       6.94926000
O       -1.06034000       4.04903000      10.28464000
O       -1.08913000       7.08235000      13.78461000
O       -0.94634000       3.99989000      17.13522000
O        0.54669000       1.89882000       2.19447000
O        0.57141000       5.23734000       5.53062000
O        0.54627000       1.85103000       8.89076000
O        0.58255000       5.22646000      12.35720000
O        0.56366000       1.74336000      16.08398000
O        0.52823000       5.99025000       1.96201000
O        0.55486000       2.62264000       5.57936000
O        0.60219000       6.01401000       8.94145000
O        0.60664000       2.56528000      12.24127000
O        0.58037000       5.79719000      15.64145000
Sn       2.19365000       7.26677000       2.05653000
Sn       2.11516000       3.79360000       5.54537000
Sn       2.19184000       7.40186000       8.98852000
Sn       2.18355000       3.84704000      12.39143000
Sn       2.21571000       7.04526000      15.96596000
Sn       3.74998000       3.87873000       2.20716000
Sn       3.76948000       7.22532000       5.52738000
Sn       3.75546000       4.00365000       8.93250000
Sn       3.75219000       7.26393000      12.41334000
Sn       3.74576000       3.79014000      15.87638000
O        2.20845000       3.75028000       0.86905000
O        2.21618000       7.18315000       4.18596000
O        2.09650000       3.79925000       7.66732000
O        2.12550000       7.36596000      11.09486000
O        2.23521000       3.66207000      14.43320000
O        2.13657000       3.82970000       3.44337000
O        2.26393000       7.21474000       6.89916000
O        2.20852000       4.04109000      10.32190000
O        2.14545000       7.28524000      13.75945000
O        2.16778000       4.01145000      17.18101000
O        3.71504000       1.86117000       2.33086000
O        3.69263000       5.10619000       5.70101000
O        3.80888000       1.88346000       8.95664000
O        3.73469000       5.22356000      12.57152000
O        3.77936000       1.72935000      16.28432000
O        3.77169000       5.92435000       2.02276000
O        3.82184000       2.57411000       5.38983000
O        3.76170000       6.06020000       9.04587000
O        3.79933000       2.64387000      12.11666000
O        3.76902000       5.85472000      15.74589000
Sn       5.35083000       7.16086000       1.98608000
Sn       5.33771000       3.84908000       5.53731000
Sn       5.35575000       7.36808000       8.99873000
Sn       5.39632000       3.82751000      12.46461000
Sn       5.30997000       7.18223000      15.81325000
Sn       6.98685000       3.88896000       2.17486000
Sn       6.97891000       7.29764000       5.61001000
Sn       6.98153000       3.93783000       8.98486000
Sn       6.91803000       7.26869000      12.45850000
Sn       6.86866000       3.77191000      15.95402000
O        5.39298000       3.97181000       0.71925000
O        5.37689000       7.25777000       4.25389000
O        5.34715000       3.66480000       7.57481000
O        5.35119000       7.15427000      11.11517000
O        5.34410000       3.61857000      14.56430000
O        5.31560000       4.03517000       3.46236000
O        5.34947000       7.29767000       6.91001000
O        5.47403000       3.99421000      10.31755000
O        5.28369000       7.42800000      13.74596000
O        5.29403000       3.98272000      17.21676000
O        6.95305000       1.85734000       1.96892000
O        6.86985000       5.23359000       5.71744000
O        6.91902000       1.85828000       9.00742000
O        6.91421000       5.14393000      12.57610000
O        7.02849000       1.73834000      15.82750000
O        6.98334000       6.05586000       2.01064000
O        6.93214000       2.61561000       5.63416000
O        6.90293000       5.98704000       8.93329000
O        7.04133000       2.60018000      12.46600000
O        6.98385000       5.92492000      15.67275000
Sn       8.54741000       7.36930000       2.01251000
Sn       8.48838000       3.94305000       5.61344000
Sn       8.52285000       7.13801000       8.97384000
Sn       8.57321000       3.92678000      12.37902000
Sn       8.48161000       7.19233000      15.85200000
Sn      10.12199000       3.95930000       2.06129000
Sn      10.08101000       7.35045000       5.59400000
Sn      10.14499000       3.88607000       8.97149000
Sn      10.05945000       7.18556000      12.45647000
Sn      10.16572000       3.81086000      15.65524000
O        8.54260000       4.05387000       0.80616000
O        8.63611000       7.40063000       4.24674000
O        8.57307000       3.88619000       7.72334000
O        8.49833000       7.08629000      11.10400000
O        8.51541000       3.76690000      14.53565000
O        8.46246000       4.07850000       3.51250000
O        8.57927000       7.23068000       6.89540000
O        8.54305000       4.11316000      10.31292000
O        8.56030000       7.42715000      13.79756000
O        8.68972000       3.97322000      17.29059000
O       10.06494000       1.97909000       2.18881000
O       10.14393000       5.20391000       5.69476000
O       10.14330000       1.84006000       8.90699000
O       10.16125000       5.13400000      12.47947000
O       10.18179000       1.77792000      16.13563000
O       10.13255000       6.03056000       2.09022000
O       10.06770000       2.60615000       5.56468000
O       10.23414000       5.94832000       8.78883000
O       10.14160000       2.56389000      12.17151000
O       10.00632000       5.83444000      15.62377000
Sn      -0.99586000      13.94584000       2.11298000
Sn      -1.01422000      10.53296000       5.66132000
Sn      -1.00562000      13.92409000       8.92832000
Sn      -1.03063000      10.51231000      12.36274000
Sn      -0.99324000      13.86649000      15.95940000
Sn       0.57271000      10.57630000       2.26356000
Sn       0.58219000      13.96373000       5.48857000
Sn       0.69317000      10.56588000       9.01553000
Sn       0.56862000      13.87408000      12.52004000
Sn       0.58888000      10.42652000      15.90673000
O       -1.05098000      10.40166000       0.86813000
O       -1.04930000      14.05900000       4.27969000
O       -1.03700000      10.51972000       7.66424000
O       -0.98951000      13.89164000      10.98478000
O       -0.92103000      10.34568000      14.62292000
O       -1.10459000      10.63655000       3.50468000
O       -1.02800000      13.90993000       6.89979000
O       -1.04511000      10.51117000      10.33059000
O       -1.00387000      14.02459000      13.84373000
O       -1.02894000      10.69479000      17.32402000
O        0.54018000       8.53400000       2.19950000
O        0.53151000      11.80377000       5.56904000
O        0.55513000       8.57276000       9.09024000
O        0.54630000      11.85586000      12.60937000
O        0.54906000       8.40603000      16.14962000
O        0.56514000      12.66444000       1.95201000
O        0.63780000       9.24013000       5.51275000
O        0.56969000      12.58242000       8.94303000
O        0.55621000       9.30630000      12.59564000
O        0.54319000      12.53953000      15.71258000
Sn       2.12390000      13.98588000       1.97322000
Sn       2.13970000      10.53011000       5.59812000
Sn       2.18536000      14.00021000       8.85000000
Sn       2.14277000      10.61143000      12.56159000
Sn       2.19751000      13.85843000      15.82119000
Sn       3.70646000      10.59243000       2.18558000
Sn       3.70764000      13.86738000       5.36841000
Sn       3.76483000      10.72176000       9.06873000
Sn       3.75260000      13.93557000      12.24827000
Sn       3.70783000      10.53493000      15.91002000
O        2.14388000      10.56402000       0.89803000
O        2.10330000      13.72093000       4.04736000
O        2.07217000      10.60971000       7.61952000
O        2.17679000      13.93076000      11.01070000
O        2.14217000      10.45824000      14.58745000
O        2.18211000      10.54210000       3.48398000
O        2.09409000      13.94328000       6.73917000
O        2.19989000      10.74740000      10.38930000
O        2.28356000      14.04767000      13.70711000
O        2.11151000      10.70751000      17.29956000
O        3.78650000       8.54131000       2.15869000
O        3.78940000      11.81692000       5.67066000
O        3.70099000       8.67699000       9.02517000
O        3.74174000      11.88236000      12.63054000
O        3.69539000       8.49973000      16.14695000
O        3.66666000      12.62072000       1.88966000
O        3.74005000       9.32055000       5.46116000
O        3.79842000      12.80983000       8.86605000
O        3.80187000       9.34081000      12.43324000
O        3.75065000      12.62520000      15.75833000
Sn       5.34968000      13.90222000       1.97511000
Sn       5.35791000      10.55144000       5.52573000
Sn       5.37003000      14.07371000       8.84824000
Sn       5.37895000      10.62999000      12.46065000
Sn       5.36259000      13.88798000      15.88982000
Sn       6.95458000      10.69489000       1.95809000
Sn       6.88932000      13.95753000       5.47486000
Sn       6.98575000      10.62699000       9.06167000
Sn       6.94604000      13.91487000      12.44883000
Sn       7.00180000      10.50657000      15.97306000
O        5.25507000      10.70848000       0.71386000
O        5.37749000      13.81966000       4.11362000
O        5.25154000      10.48280000       7.71960000
O        5.39879000      13.98818000      11.04434000
O        5.33525000      10.48355000      14.66248000
O        5.35397000      10.84257000       3.39029000
O        5.20161000      14.02122000       6.79278000
O        5.30764000      10.67781000      10.36284000
O        5.31427000      13.91364000      13.71468000
O        5.28014000      10.52480000      17.38303000
O        6.88433000       8.63194000       2.11981000
O        6.86971000      11.87106000       5.57860000
O        7.00514000       8.58509000       9.12743000
O        6.99359000      11.90627000      12.42937000
O        6.81938000       8.49401000      15.86505000
O        7.00370000      12.72295000       1.77204000
O        7.03065000       9.33250000       5.62870000
O        6.92852000      12.69976000       8.87745000
O        6.94529000       9.28763000      12.19040000
O        6.94825000      12.61514000      15.68391000
Sn       8.57400000      14.01285000       2.08933000
Sn       8.49422000      10.75827000       5.55429000
Sn       8.54945000      13.93990000       9.06903000
Sn       8.57464000      10.59619000      12.50133000
Sn       8.57721000      13.77582000      15.82291000
Sn      10.02774000      10.72496000       2.24925000
Sn      10.11453000      13.96007000       5.61405000
Sn      10.17151000      10.55331000       9.03470000
Sn      10.16247000      13.95555000      12.41781000
Sn      10.22931000      10.49112000      15.84441000
O        8.59637000      10.67270000       0.71453000
O        8.53262000      14.01017000       4.16021000
O        8.54927000      10.65866000       7.65897000
O        8.56468000      13.72954000      11.07817000
O        8.59532000      10.59481000      14.56669000
O        8.36667000      10.86197000       3.44266000
O        8.51751000      13.77581000       6.86465000
O        8.59849000      10.69243000      10.35179000
O        8.59438000      13.96036000      13.69245000
O        8.59577000      10.68996000      17.18155000
O       10.11576000       8.65743000       2.28454000
O       10.21508000      11.89318000       5.48231000
O       10.08625000       8.50124000       9.07874000
O       10.22817000      11.91690000      12.44974000
O       10.14850000       8.51328000      16.22311000
O       10.12004000      12.74851000       2.09897000
O       10.08584000       9.37937000       5.48997000
O       10.18666000      12.61864000       9.03069000
O       10.15472000       9.30481000      12.37265000
O       10.14578000      12.60157000      15.71598000
O        9.74988000       2.23499000      33.29355000
H        9.59365000       1.70394000      32.39257000
H        9.14393000       2.98221000      33.19087000
O        2.44013000       5.00722000      49.31581000
H        1.75550000       4.33606000      48.86746000
H        2.06902000       5.91941000      49.69922000
O       10.75459000       2.25536000      43.04913000
H       11.18357000       1.50888000      42.61253000
H       10.21982000       2.71504000      42.38709000
O        2.04308000      13.52346000      33.83760000
H        1.30740000      14.08321000      34.10277000
H        1.97084000      12.59648000      34.18859000
O        6.53182000       5.27520000      44.71631000
H        7.22617000       4.44358000      44.71154000
H        5.64872000       4.87019000      44.89785000
O        8.37671000       0.47174000      34.93837000
H        8.97594000       0.36542000      35.70531000
H        8.83806000       1.10362000      34.28720000
O        3.51687000       8.76191000      33.27319000
H        3.39101000       9.62649000      32.84297000
H        2.82666000       8.15707000      32.89143000
O        0.17039000       3.38755000      22.26104000
H        0.80743000       3.13566000      21.55661000
H        0.45706000       2.69536000      22.97147000
O       16.77483000       1.67140000      29.21783000
H       16.16346000       1.53121000      28.42649000
H       17.35865000       2.33728000      29.00418000
O        3.88739000       4.06898000      44.62336000
H        3.81347000       3.31878000      45.27087000
H        3.19318000       4.69480000      44.91373000
O        7.44524000       8.63971000      31.21310000
H        7.77934000       7.74864000      30.99457000
H        7.35608000       8.65653000      32.22857000
O        2.22989000      -4.30358000      24.53750000
H        3.06595000      -4.82205000      24.81812000
H        1.94258000      -3.88505000      25.35084000
O        3.06246000      11.80507000      27.01648000
H        2.06299000      11.41592000      26.72777000
H        3.30957000      11.28851000      27.79970000
O        0.57384000       1.29765000      45.39335000
H        1.49671000       1.21525000      45.75319000
H       -0.05875000       1.40893000      46.11790000
O        3.10996000       9.08287000      37.86872000
H        2.21548000       8.65607000      37.85387000
H        3.63823000       8.69343000      38.64711000
O        6.95413000      11.88265000      26.63346000
H        6.66194000      12.43260000      27.34643000
H        6.82494000      10.84779000      26.79634000
O        5.05397000      10.86665000      36.02148000
H        5.76645000      10.98574000      35.35795000
H        4.43363000      11.64454000      35.93519000
O        5.63394000      -0.73065000      28.90101000
H        6.22836000      -0.74078000      29.69612000
H        5.06879000       0.01840000      29.11130000
O       10.19072000       5.14227000      25.70685000
H       10.41945000       5.47338000      26.60487000
H       10.99394000       5.01646000      25.18129000
O       -0.74244000       7.49925000      21.41627000
H       -0.48067000       7.66300000      22.31864000
H       -0.68886000       8.34561000      20.97170000
O        5.91502000       7.05217000      42.57956000
H        6.23444000       6.43911000      43.33680000
H        4.91248000       6.95849000      42.35962000
O        8.40161000      14.60665000      40.66407000
H        8.86012000      13.73052000      40.63253000
H        8.06666000      14.70431000      41.56137000
O        8.52120000      -0.94161000      38.02749000
H        7.57337000      -0.97860000      38.26413000
H        8.73424000       0.05047000      37.98900000
O        1.48849000       2.31923000      20.24943000
H        0.90543000       2.43196000      19.47686000
H        2.20945000       3.08622000      20.01805000
O       -4.06349000      13.46794000      22.20971000
H       -3.26144000      13.94539000      22.20850000
H       -3.90756000      12.56373000      21.73823000
O       11.98408000       3.86932000      35.80152000
H       12.47771000       4.71038000      36.01040000
H       11.20922000       4.22689000      35.21334000
O        6.32952000       3.15153000      29.52885000
H        7.28804000       3.43732000      29.64045000
H        6.06833000       2.90183000      30.44624000
O        7.70648000       6.04968000      26.69748000
H        8.37991000       5.94372000      27.35176000
H        6.83717000       5.77284000      27.09492000
O        2.17594000      13.25972000      17.89105000
H        2.34496000      12.23005000      17.71622000
H        1.31667000      13.39026000      18.30008000
O       11.85856000       5.26394000      40.09339000
H       12.04930000       6.23085000      40.20385000
H       11.37481000       4.97591000      40.86184000
O        9.28738000      11.34969000      47.45964000
H        8.92881000      10.48785000      47.78080000
H       10.33744000       7.59359000      50.39779000
O       10.10701000       6.76510000      45.72776000
H        9.18314000       7.01597000      45.90623000
H       10.80253000       7.38000000      46.03302000
O        6.64371000      12.99053000      31.29751000
H        6.26099000      13.79812000      31.69479000
H        6.90686000      12.40087000      32.08468000
O        6.84849000       9.46010000      39.88141000
H        7.06424000       9.56430000      40.80135000
H        6.45503000      10.33942000      39.47478000
O        5.30816000       5.28528000      34.09265000
H        6.17227000       4.85568000      33.95763000
H        5.11097000       5.50089000      33.15400000
O       -0.27095000       9.28808000      43.90290000
H       -0.73611000       8.84025000      43.16438000
H       -0.77829000      10.02793000      44.33056000
O        5.03974000       9.50519000      49.12587000
H        4.81427000       8.63417000      49.59655000
H        4.33165000       9.95402000      48.53790000
O       14.16958000       7.23070000      40.56968000
H       14.16633000       8.13667000      40.21963000
H       14.77251000       7.26453000      41.31326000
O        6.02399000       7.84529000      35.55615000
H        6.30631000       7.20338000      36.30466000
H        5.95398000       7.01283000      35.02520000
O        2.39384000       0.75696000      50.48170000
H        2.32168000       4.28773000      50.57113000
H        1.96953000       1.55447000      50.16532000
O        8.87026000      10.15281000      42.88068000
H        7.91321000      10.03128000      43.09040000
H        9.35144000      10.45735000      43.71175000
O       16.90069000      10.60980000      41.77648000
H       17.17539000      10.13774000      40.93556000
H       17.70488000      10.53907000      42.39812000
O        2.36898000       5.82431000      30.57422000
H        1.84352000       5.89860000      29.77881000
H        1.85165000       6.31598000      31.22481000
O        7.95852000      -1.48114000      33.44704000
H        8.78414000      -1.52425000      32.90910000
H        8.33770000      -0.76907000      34.13386000
O       -3.00631000       6.85824000      37.28563000
H       -2.04281000       6.63304000      37.20558000
H       -3.23145000       6.97656000      36.30963000
O        4.92550000       2.36009000      38.20743000
H        4.21579000       2.48356000      37.54856000
H        5.78688000       2.27266000      37.71898000
O        4.78777000      16.82854000      42.15916000
H        4.28923000      17.26962000      42.85509000
H        5.70981000      16.75673000      42.48621000
O       11.32773000       7.49174000      50.51867000
H       11.51944000       6.56155000      50.04773000
H       10.14571000      11.56097000      47.98416000
O        9.73444000      11.96747000      40.94425000
H        9.48728000      11.56683000      40.08042000
H        9.52706000      11.26937000      41.63491000
O       12.96508000       1.16716000      39.54566000
H       13.51451000       2.03209000      39.88419000
H       12.22735000       1.60419000      39.06598000
O        4.76407000       5.23766000      39.78737000
H        4.85926000       4.67063000      40.63557000
H        5.44472000       4.86212000      39.17040000
O        7.95775000       6.68839000      40.31641000
H        7.23659000       6.77195000      40.99839000
H        8.40322000       5.80473000      40.56608000
O        4.04814000       7.34451000      27.59787000
H        4.43358000       6.50122000      27.56503000
H        4.48318000       7.89646000      28.32427000
O        8.97926000       9.29836000      19.29850000
H        8.76495000       9.83011000      20.05390000
H        8.74580000       9.92744000      18.52920000
O       11.22018000       8.69017000      39.67290000
H       11.74970000       8.12439000      39.07479000
H       11.12362000       8.27629000      40.54577000
O        1.92033000       2.95959000      32.07581000
H        2.22112000       3.17165000      32.99741000
H        2.15758000       3.71212000      31.49666000
O       12.06744000      11.91352000      23.95484000
H       11.66003000      12.78504000      23.64983000
H       11.37947000      11.26318000      23.71074000
O        5.20578000       4.90256000      27.89289000
H        4.64841000       4.51623000      27.18435000
H        5.36099000       4.27810000      28.64193000
O       11.03661000      12.90991000      35.64519000
H       11.06779000      12.44547000      34.75428000
H       11.75390000      12.36967000      36.10643000
O        6.82682000       9.42790000      27.12541000
H        6.46192000       9.07281000      27.99847000
H        6.19312000       8.92243000      26.51698000
O       -1.69050000       6.66986000      31.29709000
H       -1.96732000       7.13549000      32.18992000
H       -1.54717000       5.75282000      31.66652000
O       10.52446000      11.03282000      44.81892000
H       10.12477000      10.99913000      45.75629000
H       10.58532000      12.03618000      44.65878000
O        9.12367000       2.98200000      26.35675000
H        9.65014000       3.67286000      25.98682000
H        9.72884000       2.21113000      26.35968000
O        5.11739000       7.20658000      50.48325000
H        6.10197000      10.35021000      46.02591000
H        5.39971000       6.45704000      49.96139000
O       -0.28456000       8.08395000      46.27613000
H       -0.09306000       8.49437000      45.41503000
H        0.21368000       8.63437000      47.00120000
O        5.71961000       6.98963000      17.90948000
H        4.97418000      11.13168000      18.07239000
H        5.25876000       7.69828000      18.38561000
O        5.86287000       6.15310000      23.78958000
H        5.21535000       5.43500000      23.67383000
H        5.70612000       6.57234000      22.90896000
O        9.99551000       4.89566000      47.45134000
H       10.02716000       5.70351000      46.90444000
H        9.12032000       4.78954000      47.90452000
O       11.30305000       3.73960000      29.94601000
H       11.91215000       3.20177000      29.37802000
H       11.71372000       3.57241000      30.85053000
O        7.61255000       5.98845000      30.75297000
H        6.61364000       6.09193000      30.71240000
H        8.00836000       5.82426000      29.89026000
O        4.86010000       5.06075000      48.33283000
H        4.10527000       4.90700000      48.92286000
H        4.51286000       5.74120000      47.70999000
O        9.85893000       5.96852000      28.64611000
H       10.13345000       6.91509000      28.66914000
H       10.32378000       5.52252000      29.34283000
O        6.86283000      12.80170000      48.92628000
H        7.66291000      13.09151000      49.45444000
H        6.16583000      13.32237000      49.39341000
O        1.02226000      12.93056000      29.80888000
H        0.06335000      12.86495000      29.76967000
H        1.34192000      11.98024000      29.82028000
O        3.49326000      10.97044000      47.58578000
H        4.27898000      11.55991000      47.37121000
H        3.28784000      10.39451000      46.77491000
O        5.98083000       1.78467000      35.50570000
H        5.93986000       2.04130000      34.52259000
H        6.85838000       1.41197000      35.50607000
O       10.91725000       0.65174000      26.44510000
H       10.69684000      -0.10698000      25.89736000
H       11.91254000       0.72922000      26.51279000
O       11.18825000      -0.38156000      29.21191000
H       11.07038000       0.16627000      28.38711000
H       10.37135000      -0.26554000      29.72667000
O       13.75064000      12.50391000      43.44693000
H       12.93396000      12.74641000      42.93939000
H       13.54342000      12.89228000      44.31762000
O        2.15752000       7.34134000      50.56356000
H        3.12092000       7.37603000      50.40526000
H       -0.11692000       8.62838000      49.45972000
O        9.75200000      13.66033000      44.67546000
H       10.21346000      14.42623000      44.23563000
H        9.43192000      14.02530000      45.55008000
O       11.88160000       5.22702000      49.29398000
H       11.20981000       5.17935000      48.58236000
H       11.77695000       4.49766000      50.06941000
O        0.80886000      11.18556000      25.96735000
H        0.08313000      10.82856000      26.60723000
H        0.19074000      11.49320000      25.19782000
O        9.69198000       8.48095000      27.79726000
H        8.76513000       8.74893000      27.78175000
H       10.25090000       9.27906000      27.96313000
O        6.60001000       6.19954000      37.65739000
H        6.82603000       6.44954000      38.55666000
H        7.39875000       5.54823000      37.46705000
O        4.05458000       1.96925000      23.08902000
H        3.76323000       1.32756000      23.81236000
H        4.98896000       1.75579000      22.91434000
O        2.40694000       9.21993000      19.41667000
H        3.34607000       9.02997000      19.68756000
H        2.43038000       9.91126000      18.62212000
O        8.67420000       7.47936000      50.53879000
H        8.19175000       8.58526000      49.45628000
H        8.31577000       6.70849000      50.02630000
O        9.83793000      10.70818000      23.34593000
H        9.86894000       9.73923000      23.72429000
H        9.36609000      11.24235000      24.04492000
O       -0.17461000       4.97479000      24.27927000
H       -0.19962000       4.60656000      23.34777000
H        0.32629000       4.48980000      24.98335000
O        6.33852000       9.63118000      42.92409000
H        6.23163000       8.58859000      42.83953000
H        6.23562000       9.72240000      43.98310000
O        0.69536000       8.92325000      49.05929000
H        1.98382000      11.08107000      50.52736000
H        1.42978000       8.41235000      49.52822000
O        1.34025000       7.16663000      32.77777000
H        0.58550000       7.85672000      32.68136000
H        1.23981000       6.76813000      33.71867000
O        7.86850000       4.02551000      32.71223000
H        7.00114000       3.47864000      32.62551000
H        7.84786000       4.59319000      31.93320000
O        1.94250000       6.46503000      21.41282000
H        2.67132000       7.12968000      21.29058000
H        1.12031000       7.04777000      21.33161000
O        1.33450000      12.22844000      38.88500000
H        1.31821000      12.06017000      37.95087000
H        0.90233000      13.00881000      39.20705000
O       11.60198000      14.18599000      50.62725000
H       11.80703000      15.17443000      50.69930000
H       11.60159000      10.97516000      50.62328000
O        4.58408000       7.93080000      39.76407000
H        5.46170000       8.33594000      39.79016000
H        4.65615000       6.93218000      39.66335000
O        9.06403000       2.84794000      29.18735000
H        9.94115000       3.38029000      29.44684000
H        9.06763000       2.94409000      28.17055000
O       -1.85909000      11.89828000      32.98717000
H       -1.14213000      11.26922000      32.60271000
H       -1.59822000      12.72702000      32.49546000
O        4.01210000       0.17812000      35.91485000
H        4.84157000       0.79714000      35.80814000
H        3.40089000       0.34755000      35.12994000
O        3.50605000      13.20963000      41.89289000
H        3.82213000      12.29021000      41.72149000
H        2.68878000      13.01984000      42.30378000
O        3.91197000       3.73519000      25.85232000
H        4.09180000       3.93389000      24.89287000
H        3.73260000       2.75052000      25.80295000
O        3.17916000       6.45521000      46.27787000
H        2.41127000       6.26117000      46.93336000
H        3.03981000       7.42495000      46.00260000
O       -0.12007000       7.93417000      29.58182000