 DBCSR| CPU Multiplication driver                                           XSMM
 DBCSR| Multrec recursion limit                                              512
 DBCSR| Multiplication stack size                                           1000
 DBCSR| Maximum elements for images                                    UNLIMITED
 DBCSR| Multiplicative factor virtual images                                   1
 DBCSR| Use multiplication densification                                       T
 DBCSR| Multiplication size stacks                                             3
 DBCSR| Number of 3D layers                                               SINGLE
 DBCSR| Use MPI memory allocation                                              T
 DBCSR| Use RMA algorithm                                                      F
 DBCSR| Use Communication thread                                               T
 DBCSR| Communication thread load                                             87


  **** **** ******  **  PROGRAM STARTED AT               2023-09-19 04:25:41.849
 ***** ** ***  *** **   PROGRAM STARTED ON                               c53-027
 **    ****   ******    PROGRAM STARTED BY                                 jxzhu
 ***** **    ** ** **   PROGRAM PROCESS ID                                193774
  **** **  *******  **  PROGRAM STARTED IN /data/jxzhu/nnp/dp_workdir/906a34e792
                                           1e9fa80075d10abe61272f27dd6207/calc/t
                                           ask.000.000000

 CP2K| version string:                                          CP2K version 7.1
 CP2K| source code revision number:                                  git:e635599
 CP2K| cp2kflags: libint fftw3 libxc elpa parallel mpi3 scalapack xsmm spglib   
 CP2K| is freely available from                            https://www.cp2k.org/
 CP2K| Program compiled at                           Mon Mar 8 20:53:19 CST 2021
 CP2K| Program compiled on                                                 mgt01
 CP2K| Program compiled for                                                local
 CP2K| Data directory path                                    /data/jxzhu/basis/
 CP2K| Input file name                                                 input.inp

 GLOBAL| Force Environment number                                              1
 GLOBAL| Basis set file name                                        BASIS_MOLOPT
 GLOBAL| Potential file name                                      GTH_POTENTIALS
 GLOBAL| MM Potential file name                                     MM_POTENTIAL
 GLOBAL| Coordinate file name                                          coord.xyz
 GLOBAL| Method name                                                        CP2K
 GLOBAL| Project name                                                       cp2k
 GLOBAL| Preferred FFT library                                             FFTW3
 GLOBAL| Preferred diagonalization lib.                                     ELPA
 GLOBAL| Run type                                                   ENERGY_FORCE
 GLOBAL| All-to-all communication in single precision                          F
 GLOBAL| FFTs using library dependent lengths                                  F
 GLOBAL| Global print level                                               MEDIUM
 GLOBAL| MPI I/O enabled                                                       T
 GLOBAL| Total number of message passing processes                            96
 GLOBAL| Number of threads for this process                                    1
 GLOBAL| This output is from process                                           0
 GLOBAL| CPU model name                Intel(R) Xeon(R) Gold 6226R CPU @ 2.90GHz
 GLOBAL| CPUID                                                              1003
 GLOBAL| Compiled for CPUID                                                 1002
 HINT in environment.F:814 The compiler target flags (x86_avx2) used to build
   this binary cannot exploit all extensions of this CPU model (x86_avx512).
   Consider compiler target flags as part of FCFLAGS and CFLAGS (ARCH file).

 MEMORY| system memory details [Kb]
 MEMORY|                        rank 0           min           max       average
 MEMORY| MemTotal            196481376     196481368     196481376     196481373
 MEMORY| MemFree             166908940     135106984     180749188     160921704
 MEMORY| Buffers                     0             0          4188          1396
 MEMORY| Cached               12066988       2799156      28226324      14364156
 MEMORY| Slab                  1032400        515024       1886236       1144553
 MEMORY| SReclaimable           433144        171176        886776        497032
 MEMORY| MemLikelyFree       179409072     164220084     183723708     175784288


 *** Fundamental physical constants (SI units) ***

 *** Literature: B. J. Mohr and B. N. Taylor,
 ***             CODATA recommended values of the fundamental physical
 ***             constants: 2006, Web Version 5.1
 ***             http://physics.nist.gov/constants

 Speed of light in vacuum [m/s]                             2.99792458000000E+08
 Magnetic constant or permeability of vacuum [N/A**2]       1.25663706143592E-06
 Electric constant or permittivity of vacuum [F/m]          8.85418781762039E-12
 Planck constant (h) [J*s]                                  6.62606896000000E-34
 Planck constant (h-bar) [J*s]                              1.05457162825177E-34
 Elementary charge [C]                                      1.60217648700000E-19
 Electron mass [kg]                                         9.10938215000000E-31
 Electron g factor [ ]                                     -2.00231930436220E+00
 Proton mass [kg]                                           1.67262163700000E-27
 Fine-structure constant                                    7.29735253760000E-03
 Rydberg constant [1/m]                                     1.09737315685270E+07
 Avogadro constant [1/mol]                                  6.02214179000000E+23
 Boltzmann constant [J/K]                                   1.38065040000000E-23
 Atomic mass unit [kg]                                      1.66053878200000E-27
 Bohr radius [m]                                            5.29177208590000E-11

 *** Conversion factors ***

 [u] -> [a.u.]                                              1.82288848426455E+03
 [Angstrom] -> [Bohr] = [a.u.]                              1.88972613288564E+00
 [a.u.] = [Bohr] -> [Angstrom]                              5.29177208590000E-01
 [a.u.] -> [s]                                              2.41888432650478E-17
 [a.u.] -> [fs]                                             2.41888432650478E-02
 [a.u.] -> [J]                                              4.35974393937059E-18
 [a.u.] -> [N]                                              8.23872205491840E-08
 [a.u.] -> [K]                                              3.15774647902944E+05
 [a.u.] -> [kJ/mol]                                         2.62549961709828E+03
 [a.u.] -> [kcal/mol]                                       6.27509468713739E+02
 [a.u.] -> [Pa]                                             2.94210107994716E+13
 [a.u.] -> [bar]                                            2.94210107994716E+08
 [a.u.] -> [atm]                                            2.90362800883016E+08
 [a.u.] -> [eV]                                             2.72113838565563E+01
 [a.u.] -> [Hz]                                             6.57968392072181E+15
 [a.u.] -> [1/cm] (wave numbers)                            2.19474631370540E+05
 [a.u./Bohr**2] -> [1/cm]                                   5.14048714338585E+03
 

 CELL_TOP| Volume [angstrom^3]:                                         8641.314
 CELL_TOP| Vector a [angstrom    12.745     0.000     0.000    |a| =      12.745
 CELL_TOP| Vector b [angstrom     0.000    13.399     0.000    |b| =      13.399
 CELL_TOP| Vector c [angstrom     0.000     0.000    50.600    |c| =      50.600
 CELL_TOP| Angle (b,c), alpha [degree]:                                   90.000
 CELL_TOP| Angle (a,c), beta  [degree]:                                   90.000
 CELL_TOP| Angle (a,b), gamma [degree]:                                   90.000
 CELL_TOP| Numerically orthorhombic:                                         YES

 GENERATE|  Preliminary Number of Bonds generated:                             0
 GENERATE|  Achieved consistency in connectivity generation.

 CELL| Volume [angstrom^3]:                                             8641.314
 CELL| Vector a [angstrom]:      12.745     0.000     0.000    |a| =      12.745
 CELL| Vector b [angstrom]:       0.000    13.399     0.000    |b| =      13.399
 CELL| Vector c [angstrom]:       0.000     0.000    50.600    |c| =      50.600
 CELL| Angle (b,c), alpha [degree]:                                       90.000
 CELL| Angle (a,c), beta  [degree]:                                       90.000
 CELL| Angle (a,b), gamma [degree]:                                       90.000
 CELL| Numerically orthorhombic:                                             YES

 CELL_REF| Volume [angstrom^3]:                                         8641.314
 CELL_REF| Vector a [angstrom    12.745     0.000     0.000    |a| =      12.745
 CELL_REF| Vector b [angstrom     0.000    13.399     0.000    |b| =      13.399
 CELL_REF| Vector c [angstrom     0.000     0.000    50.600    |c| =      50.600
 CELL_REF| Angle (b,c), alpha [degree]:                                   90.000
 CELL_REF| Angle (a,c), beta  [degree]:                                   90.000
 CELL_REF| Angle (a,b), gamma [degree]:                                   90.000
 CELL_REF| Numerically orthorhombic:                                         YES

 *******************************************************************************
 *******************************************************************************
 **                                                                           **
 **     #####                         ##              ##                      **
 **    ##   ##            ##          ##              ##                      **
 **   ##     ##                       ##            ######                    **
 **   ##     ##  ##   ##  ##   #####  ##  ##   ####   ##    #####    #####    **
 **   ##     ##  ##   ##  ##  ##      ## ##   ##      ##   ##   ##  ##   ##   **
 **   ##  ## ##  ##   ##  ##  ##      ####     ###    ##   ######   ######    **
 **    ##  ###   ##   ##  ##  ##      ## ##      ##   ##   ##       ##        **
 **     #######   #####   ##   #####  ##  ##  ####    ##    #####   ##        **
 **           ##                                                    ##        **
 **                                                                           **
 **                                                ... make the atoms dance   **
 **                                                                           **
 **            Copyright (C) by CP2K developers group (2000 - 2019)           **
 **                                                                           **
 *******************************************************************************

 DFT| Spin restricted Kohn-Sham (RKS) calculation                            RKS
 DFT| Multiplicity                                                             1
 DFT| Number of spin states                                                    1
 DFT| Charge                                                                   0
 DFT| Self-interaction correction (SIC)                                       NO
 DFT| Cutoffs: density                                              1.000000E-10
 DFT|          gradient                                             1.000000E-10
 DFT|          tau                                                  1.000000E-10
 DFT|          cutoff_smoothing_range                               0.000000E+00
 DFT| XC density smoothing                                                  NONE
 DFT| XC derivatives                                                          PW
 FUNCTIONAL| ROUTINE=NEW
 FUNCTIONAL| PBE:
 FUNCTIONAL| J.P.Perdew, K.Burke, M.Ernzerhof, Phys. Rev. Letter, vol. 77, n 18,
 FUNCTIONAL|  pp. 3865-3868, (1996){spin unpolarized}                           
 vdW POTENTIAL|                                                   Pair Potential
 vdW POTENTIAL|          DFT-D3 (Version 3.1)
 vdW POTENTIAL|          Potential Form: S. Grimme et al, JCP 132: 154104 (2010)
 vdW POTENTIAL|          Zero Damping
 vdW POTENTIAL|          Cutoff Radius [Bohr]:                             20.00
 vdW POTENTIAL|          s6 Scaling Factor:                               1.0000
 vdW POTENTIAL|          sr6 Scaling Factor:                              1.2170
 vdW POTENTIAL|          s8 Scaling Factor:                               0.7220
 vdW POTENTIAL|          Cutoff for CN calculation:                   0.1000E-05

 QS| Method:                                                                 GPW
 QS| Density plane wave grid type                        NON-SPHERICAL FULLSPACE
 QS| Number of grid levels:                                                    5
 QS| Density cutoff [a.u.]:                                                400.0
 QS| Multi grid cutoff [a.u.]: 1) grid level                               400.0
 QS|                           2) grid level                               133.3
 QS|                           3) grid level                                44.4
 QS|                           4) grid level                                14.8
 QS|                           5) grid level                                 4.9
 QS| Grid level progression factor:                                          3.0
 QS| Relative density cutoff [a.u.]:                                        20.0
 QS| Consistent realspace mapping and integration 
 QS| Interaction thresholds: eps_pgf_orb:                                3.2E-07
 QS|                         eps_filter_matrix:                          0.0E+00
 QS|                         eps_core_charge:                            1.0E-15
 QS|                         eps_rho_gspace:                             1.0E-13
 QS|                         eps_rho_rspace:                             1.0E-13
 QS|                         eps_gvg_rspace:                             3.2E-07
 QS|                         eps_ppl:                                    1.0E-02
 QS|                         eps_ppnl:                                   3.2E-09


 ATOMIC KIND INFORMATION

  1. Atomic kind: Sn                                    Number of atoms:      80

     Orbital Basis Set                                        DZVP-MOLOPT-SR-GTH

       Number of orbital shell sets:                                           1
       Number of orbital shells:                                               5
       Number of primitive Cartesian functions:                                5
       Number of Cartesian basis functions:                                   14
       Number of spherical basis functions:                                   13
       Norm type:                                                              2

       Normalised Cartesian orbitals:

                        Set   Shell   Orbital            Exponent    Coefficient

                          1       1    2s                0.666670       0.520777
                                                         0.486831      -0.306181
                                                         0.172776      -0.164135
                                                         0.065536      -0.028602
                                                         0.063644       0.007393

                          1       2    3s                0.666670       0.493242
                                                         0.486831      -0.377610
                                                         0.172776      -0.069723
                                                         0.065536      -0.189696
                                                         0.063644       0.305206

                          1       3    3px               0.666670       0.519082
                                                         0.486831      -0.396920
                                                         0.172776      -0.090433
                                                         0.065536      -0.029966
                                                         0.063644       0.012991
                          1       3    3py               0.666670       0.519082
                                                         0.486831      -0.396920
                                                         0.172776      -0.090433
                                                         0.065536      -0.029966
                                                         0.063644       0.012991
                          1       3    3pz               0.666670       0.519082
                                                         0.486831      -0.396920
                                                         0.172776      -0.090433
                                                         0.065536      -0.029966
                                                         0.063644       0.012991

                          1       4    4px               0.666670       0.740628
                                                         0.486831      -0.723623
                                                         0.172776       0.069715
                                                         0.065536      -0.140798
                                                         0.063644       0.174598
                          1       4    4py               0.666670       0.740628
                                                         0.486831      -0.723623
                                                         0.172776       0.069715
                                                         0.065536      -0.140798
                                                         0.063644       0.174598
                          1       4    4pz               0.666670       0.740628
                                                         0.486831      -0.723623
                                                         0.172776       0.069715
                                                         0.065536      -0.140798
                                                         0.063644       0.174598

                          1       5    4dx2              0.666670       0.239194
                                                         0.486831      -0.202509
                                                         0.172776      -0.028531
                                                         0.065536      -0.014897
                                                         0.063644       0.006227
                          1       5    4dxy              0.666670       0.414297
                                                         0.486831      -0.350755
                                                         0.172776      -0.049417
                                                         0.065536      -0.025803
                                                         0.063644       0.010786
                          1       5    4dxz              0.666670       0.414297
                                                         0.486831      -0.350755
                                                         0.172776      -0.049417
                                                         0.065536      -0.025803
                                                         0.063644       0.010786
                          1       5    4dy2              0.666670       0.239194
                                                         0.486831      -0.202509
                                                         0.172776      -0.028531
                                                         0.065536      -0.014897
                                                         0.063644       0.006227
                          1       5    4dyz              0.666670       0.414297
                                                         0.486831      -0.350755
                                                         0.172776      -0.049417
                                                         0.065536      -0.025803
                                                         0.063644       0.010786
                          1       5    4dz2              0.666670       0.239194
                                                         0.486831      -0.202509
                                                         0.172776      -0.028531
                                                         0.065536      -0.014897
                                                         0.063644       0.006227

     GTH Potential information for                                    GTH-PBE-q4

       Description:                       Goedecker-Teter-Hutter pseudopotential
                                           Goedecker et al., PRB 54, 1703 (1996)
                                          Hartwigsen et al., PRB 58, 3641 (1998)
                                                      Krack, TCA 114, 145 (2005)

       Gaussian exponent of the core charge distribution:               1.366027
       Electronic configuration (s p d ...):                               2   2

       Parameters of the local part of the GTH pseudopotential:

                          rloc        C1          C2          C3          C4
                        0.605000    6.266782

       Parameters of the non-local part of the GTH pseudopotential:

                   l      r(l)      h(i,j,l)

                   0    0.566437    1.571181    1.470041   -1.178577
                                    1.470041   -3.814770    3.043072
                                   -1.178577    3.043072   -2.415363
                   1    0.641850    0.526898    0.403258
                                    0.403258   -0.477141
                   2    0.990873    0.198766

  2. Atomic kind: O                                     Number of atoms:     346

     Orbital Basis Set                                        DZVP-MOLOPT-SR-GTH

       Number of orbital shell sets:                                           1
       Number of orbital shells:                                               5
       Number of primitive Cartesian functions:                                5
       Number of Cartesian basis functions:                                   14
       Number of spherical basis functions:                                   13
       Norm type:                                                              2

       Normalised Cartesian orbitals:

                        Set   Shell   Orbital            Exponent    Coefficient

                          1       1    2s               10.389228       0.396646
                                                         3.849621       0.208811
                                                         1.388401      -0.301641
                                                         0.496955      -0.274061
                                                         0.162492      -0.033677

                          1       2    3s               10.389228       0.303673
                                                         3.849621       0.240943
                                                         1.388401      -0.313066
                                                         0.496955      -0.043055
                                                         0.162492       0.213991

                          1       3    3px              10.389228      -1.530415
                                                         3.849621      -1.371928
                                                         1.388401      -0.761951
                                                         0.496955      -0.253695
                                                         0.162492      -0.035541
                          1       3    3py              10.389228      -1.530415
                                                         3.849621      -1.371928
                                                         1.388401      -0.761951
                                                         0.496955      -0.253695
                                                         0.162492      -0.035541
                          1       3    3pz              10.389228      -1.530415
                                                         3.849621      -1.371928
                                                         1.388401      -0.761951
                                                         0.496955      -0.253695
                                                         0.162492      -0.035541

                          1       4    4px              10.389228      -0.565392
                                                         3.849621      -0.038231
                                                         1.388401      -0.382373
                                                         0.496955       0.179070
                                                         0.162492       0.122714
                          1       4    4py              10.389228      -0.565392
                                                         3.849621      -0.038231
                                                         1.388401      -0.382373
                                                         0.496955       0.179070
                                                         0.162492       0.122714
                          1       4    4pz              10.389228      -0.565392
                                                         3.849621      -0.038231
                                                         1.388401      -0.382373
                                                         0.496955       0.179070
                                                         0.162492       0.122714

                          1       5    4dx2             10.389228       1.867377
                                                         3.849621       0.670994
                                                         1.388401       1.353441
                                                         0.496955       0.273538
                                                         0.162492       0.006620
                          1       5    4dxy             10.389228       3.234392
                                                         3.849621       1.162195
                                                         1.388401       2.344229
                                                         0.496955       0.473781
                                                         0.162492       0.011466
                          1       5    4dxz             10.389228       3.234392
                                                         3.849621       1.162195
                                                         1.388401       2.344229
                                                         0.496955       0.473781
                                                         0.162492       0.011466
                          1       5    4dy2             10.389228       1.867377
                                                         3.849621       0.670994
                                                         1.388401       1.353441
                                                         0.496955       0.273538
                                                         0.162492       0.006620
                          1       5    4dyz             10.389228       3.234392
                                                         3.849621       1.162195
                                                         1.388401       2.344229
                                                         0.496955       0.473781
                                                         0.162492       0.011466
                          1       5    4dz2             10.389228       1.867377
                                                         3.849621       0.670994
                                                         1.388401       1.353441
                                                         0.496955       0.273538
                                                         0.162492       0.006620

     GTH Potential information for                                    GTH-PBE-q6

       Description:                       Goedecker-Teter-Hutter pseudopotential
                                           Goedecker et al., PRB 54, 1703 (1996)
                                          Hartwigsen et al., PRB 58, 3641 (1998)
                                                      Krack, TCA 114, 145 (2005)

       Gaussian exponent of the core charge distribution:               8.360253
       Electronic configuration (s p d ...):                               2   4

       Parameters of the local part of the GTH pseudopotential:

                          rloc        C1          C2          C3          C4
                        0.244554  -16.667215    2.487311

       Parameters of the non-local part of the GTH pseudopotential:

                   l      r(l)      h(i,j,l)

                   0    0.220956   18.337458
                   1    0.211332

  3. Atomic kind: H                                     Number of atoms:     372

     Orbital Basis Set                                        DZVP-MOLOPT-SR-GTH

       Number of orbital shell sets:                                           1
       Number of orbital shells:                                               3
       Number of primitive Cartesian functions:                                5
       Number of Cartesian basis functions:                                    5
       Number of spherical basis functions:                                    5
       Norm type:                                                              2

       Normalised Cartesian orbitals:

                        Set   Shell   Orbital            Exponent    Coefficient

                          1       1    2s               10.068468      -0.133023
                                                         2.680223      -0.177618
                                                         0.791502      -0.258419
                                                         0.239116      -0.107525
                                                         0.082193      -0.014019

                          1       2    3s               10.068468       0.344673
                                                         2.680223       1.819821
                                                         0.791502      -0.999069
                                                         0.239116       0.017430
                                                         0.082193       0.082660

                          1       3    3px              10.068468       0.155326
                                                         2.680223       0.367157
                                                         0.791502       0.311480
                                                         0.239116       0.080105
                                                         0.082193       0.033440
                          1       3    3py              10.068468       0.155326
                                                         2.680223       0.367157
                                                         0.791502       0.311480
                                                         0.239116       0.080105
                                                         0.082193       0.033440
                          1       3    3pz              10.068468       0.155326
                                                         2.680223       0.367157
                                                         0.791502       0.311480
                                                         0.239116       0.080105
                                                         0.082193       0.033440

     GTH Potential information for                                    GTH-PBE-q1

       Description:                       Goedecker-Teter-Hutter pseudopotential
                                           Goedecker et al., PRB 54, 1703 (1996)
                                          Hartwigsen et al., PRB 58, 3641 (1998)
                                                      Krack, TCA 114, 145 (2005)

       Gaussian exponent of the core charge distribution:              12.500000
       Electronic configuration (s p d ...):                                   1

       Parameters of the local part of the GTH pseudopotential:

                          rloc        C1          C2          C3          C4
                        0.200000   -4.178900    0.724463

  4. Atomic kind: Na                                    Number of atoms:       9

     Orbital Basis Set                                        DZVP-MOLOPT-SR-GTH

       Number of orbital shell sets:                                           1
       Number of orbital shells:                                               5
       Number of primitive Cartesian functions:                                7
       Number of Cartesian basis functions:                                    9
       Number of spherical basis functions:                                    9
       Norm type:                                                              2

       Normalised Cartesian orbitals:

                        Set   Shell   Orbital            Exponent    Coefficient

                          1       1    2s               23.518801       0.288931
                                                        11.135656       0.787174
                                                         4.647814      -0.190850
                                                         1.866708      -0.573823
                                                         0.734684      -0.276866
                                                         0.275673      -0.024211
                                                         0.049895      -0.000019

                          1       2    3s               23.518801       0.039212
                                                        11.135656       0.138585
                                                         4.647814      -0.048916
                                                         1.866708      -0.102378
                                                         0.734684      -0.139633
                                                         0.275673       0.012767
                                                         0.049895       0.077569

                          1       3    4s               23.518801       0.303698
                                                        11.135656      -0.548845
                                                         4.647814       0.534441
                                                         1.866708      -0.220920
                                                         0.734684       0.980584
                                                         0.275673      -0.653367
                                                         0.049895       0.063703

                          1       4    3px              23.518801      -2.919466
                                                        11.135656      -2.855941
                                                         4.647814      -2.579491
                                                         1.866708      -1.208264
                                                         0.734684      -0.321406
                                                         0.275673      -0.035032
                                                         0.049895      -0.000067
                          1       4    3py              23.518801      -2.919466
                                                        11.135656      -2.855941
                                                         4.647814      -2.579491
                                                         1.866708      -1.208264
                                                         0.734684      -0.321406
                                                         0.275673      -0.035032
                                                         0.049895      -0.000067
                          1       4    3pz              23.518801      -2.919466
                                                        11.135656      -2.855941
                                                         4.647814      -2.579491
                                                         1.866708      -1.208264
                                                         0.734684      -0.321406
                                                         0.275673      -0.035032
                                                         0.049895      -0.000067

                          1       5    4px              23.518801      -0.381914
                                                        11.135656      -0.488169
                                                         4.647814      -0.407378
                                                         1.866708      -0.201739
                                                         0.734684      -0.078845
                                                         0.275673       0.043427
                                                         0.049895       0.031563
                          1       5    4py              23.518801      -0.381914
                                                        11.135656      -0.488169
                                                         4.647814      -0.407378
                                                         1.866708      -0.201739
                                                         0.734684      -0.078845
                                                         0.275673       0.043427
                                                         0.049895       0.031563
                          1       5    4pz              23.518801      -0.381914
                                                        11.135656      -0.488169
                                                         4.647814      -0.407378
                                                         1.866708      -0.201739
                                                         0.734684      -0.078845
                                                         0.275673       0.043427
                                                         0.049895       0.031563

     GTH Potential information for                                    GTH-PBE-q9

       Description:                       Goedecker-Teter-Hutter pseudopotential
                                           Goedecker et al., PRB 54, 1703 (1996)
                                          Hartwigsen et al., PRB 58, 3641 (1998)
                                                      Krack, TCA 114, 145 (2005)

       Gaussian exponent of the core charge distribution:               8.937631
       Electronic configuration (s p d ...):                               3   6

       Parameters of the local part of the GTH pseudopotential:

                          rloc        C1          C2          C3          C4
                        0.236523    0.295105   -0.913885

       Parameters of the non-local part of the GTH pseudopotential:

                   l      r(l)      h(i,j,l)

                   0    0.143560   34.601492
                   1    0.129932  -14.277462

  5. Atomic kind: Cl                                    Number of atoms:       9

     Orbital Basis Set                                        DZVP-MOLOPT-SR-GTH

       Number of orbital shell sets:                                           1
       Number of orbital shells:                                               5
       Number of primitive Cartesian functions:                                4
       Number of Cartesian basis functions:                                   14
       Number of spherical basis functions:                                   13
       Norm type:                                                              2

       Normalised Cartesian orbitals:

                        Set   Shell   Orbital            Exponent    Coefficient

                          1       1    2s                2.379078       0.403013
                                                         1.470718       0.018727
                                                         0.461213      -0.342539
                                                         0.150015      -0.058490

                          1       2    3s                2.379078       0.556232
                                                         1.470718       0.430620
                                                         0.461213      -0.745502
                                                         0.150015       0.311453

                          1       3    3px               2.379078       0.636316
                                                         1.470718      -0.580855
                                                         0.461213      -0.325785
                                                         0.150015      -0.051764
                          1       3    3py               2.379078       0.636316
                                                         1.470718      -0.580855
                                                         0.461213      -0.325785
                                                         0.150015      -0.051764
                          1       3    3pz               2.379078       0.636316
                                                         1.470718      -0.580855
                                                         0.461213      -0.325785
                                                         0.150015      -0.051764

                          1       4    4px               2.379078       0.838044
                                                         1.470718      -0.610657
                                                         0.461213      -0.295677
                                                         0.150015       0.171492
                          1       4    4py               2.379078       0.838044
                                                         1.470718      -0.610657
                                                         0.461213      -0.295677
                                                         0.150015       0.171492
                          1       4    4pz               2.379078       0.838044
                                                         1.470718      -0.610657
                                                         0.461213      -0.295677
                                                         0.150015       0.171492

                          1       5    4dx2              2.379078       0.509952
                                                         1.470718       0.891639
                                                         0.461213       0.295732
                                                         0.150015       0.008371
                          1       5    4dxy              2.379078       0.883263
                                                         1.470718       1.544364
                                                         0.461213       0.512223
                                                         0.150015       0.014498
                          1       5    4dxz              2.379078       0.883263
                                                         1.470718       1.544364
                                                         0.461213       0.512223
                                                         0.150015       0.014498
                          1       5    4dy2              2.379078       0.509952
                                                         1.470718       0.891639
                                                         0.461213       0.295732
                                                         0.150015       0.008371
                          1       5    4dyz              2.379078       0.883263
                                                         1.470718       1.544364
                                                         0.461213       0.512223
                                                         0.150015       0.014498
                          1       5    4dz2              2.379078       0.509952
                                                         1.470718       0.891639
                                                         0.461213       0.295732
                                                         0.150015       0.008371

     GTH Potential information for                                    GTH-PBE-q7

       Description:                       Goedecker-Teter-Hutter pseudopotential
                                           Goedecker et al., PRB 54, 1703 (1996)
                                          Hartwigsen et al., PRB 58, 3641 (1998)
                                                      Krack, TCA 114, 145 (2005)

       Gaussian exponent of the core charge distribution:               2.974420
       Electronic configuration (s p d ...):                               2   5

       Parameters of the local part of the GTH pseudopotential:

                          rloc        C1          C2          C3          C4
                        0.410000   -6.392082

       Parameters of the non-local part of the GTH pseudopotential:

                   l      r(l)      h(i,j,l)

                   0    0.339539   15.218990   -4.934523
                                   -4.934523    6.370442
                   1    0.378474    4.338775


 MOLECULE KIND INFORMATION


 All atoms are their own molecule, skipping detailed information


 TOTAL NUMBERS AND MAXIMUM NUMBERS

  Total number of            - Atomic kinds:                                   5
                             - Atoms:                                        816
                             - Shell sets:                                   816
                             - Shells:                                      3336
                             - Primitive Cartesian functions:               4089
                             - Cartesian basis functions:                   8031
                             - Spherical basis functions:                   7596

  Maximum angular momentum of- Orbital basis functions:                        2
                             - Local part of the GTH pseudopotential:          2
                             - Non-local part of the GTH pseudopotential:      4


 MODULE QUICKSTEP:  ATOMIC COORDINATES IN angstrom

  Atom  Kind  Element       X           Y           Z          Z(eff)       Mass

       1     1 Sn  50   -1.066000    7.352850    2.243130      4.00     118.7100
       2     1 Sn  50   -1.094460    3.960200    5.609270      4.00     118.7100
       3     1 Sn  50   -1.049410    7.281410    9.073060      4.00     118.7100
       4     1 Sn  50   -1.010830    3.820410   12.383570      4.00     118.7100
       5     1 Sn  50   -1.034320    7.009580   15.898160      4.00     118.7100
       6     1 Sn  50    0.442710    3.931300    2.175260      4.00     118.7100
       7     1 Sn  50    0.607640    7.301260    5.602970      4.00     118.7100
       8     1 Sn  50    0.550570    3.967370    9.016630      4.00     118.7100
       9     1 Sn  50    0.567630    7.262890   12.489180      4.00     118.7100
      10     1 Sn  50    0.659880    3.842780   15.863450      4.00     118.7100
      11     2 O    8   -1.053780    3.688030    0.709850      6.00      15.9994
      12     2 O    8   -1.056460    7.267440    4.249660      6.00      15.9994
      13     2 O    8   -0.963180    3.758990    7.636620      6.00      15.9994
      14     2 O    8   -1.125670    7.364370   11.166000      6.00      15.9994
      15     2 O    8   -0.995450    3.572970   14.427180      6.00      15.9994
      16     2 O    8   -1.085740    3.928420    3.544210      6.00      15.9994
      17     2 O    8   -1.042350    7.450070    6.949260      6.00      15.9994
      18     2 O    8   -1.060340    4.049030   10.284640      6.00      15.9994
      19     2 O    8   -1.089130    7.082350   13.784610      6.00      15.9994
      20     2 O    8   -0.946340    3.999890   17.135220      6.00      15.9994
      21     2 O    8    0.546690    1.898820    2.194470      6.00      15.9994
      22     2 O    8    0.571410    5.237340    5.530620      6.00      15.9994
      23     2 O    8    0.546270    1.851030    8.890760      6.00      15.9994
      24     2 O    8    0.582550    5.226460   12.357200      6.00      15.9994
      25     2 O    8    0.563660    1.743360   16.083980      6.00      15.9994
      26     2 O    8    0.528230    5.990250    1.962010      6.00      15.9994
      27     2 O    8    0.554860    2.622640    5.579360      6.00      15.9994
      28     2 O    8    0.602190    6.014010    8.941450      6.00      15.9994
      29     2 O    8    0.606640    2.565280   12.241270      6.00      15.9994
      30     2 O    8    0.580370    5.797190   15.641450      6.00      15.9994
      31     1 Sn  50    2.193650    7.266770    2.056530      4.00     118.7100
      32     1 Sn  50    2.115160    3.793600    5.545370      4.00     118.7100
      33     1 Sn  50    2.191840    7.401860    8.988520      4.00     118.7100
      34     1 Sn  50    2.183550    3.847040   12.391430      4.00     118.7100
      35     1 Sn  50    2.215710    7.045260   15.965960      4.00     118.7100
      36     1 Sn  50    3.749980    3.878730    2.207160      4.00     118.7100
      37     1 Sn  50    3.769480    7.225320    5.527380      4.00     118.7100
      38     1 Sn  50    3.755460    4.003650    8.932500      4.00     118.7100
      39     1 Sn  50    3.752190    7.263930   12.413340      4.00     118.7100
      40     1 Sn  50    3.745760    3.790140   15.876380      4.00     118.7100
      41     2 O    8    2.208450    3.750280    0.869050      6.00      15.9994
      42     2 O    8    2.216180    7.183150    4.185960      6.00      15.9994
      43     2 O    8    2.096500    3.799250    7.667320      6.00      15.9994
      44     2 O    8    2.125500    7.365960   11.094860      6.00      15.9994
      45     2 O    8    2.235210    3.662070   14.433200      6.00      15.9994
      46     2 O    8    2.136570    3.829700    3.443370      6.00      15.9994
      47     2 O    8    2.263930    7.214740    6.899160      6.00      15.9994
      48     2 O    8    2.208520    4.041090   10.321900      6.00      15.9994
      49     2 O    8    2.145450    7.285240   13.759450      6.00      15.9994
      50     2 O    8    2.167780    4.011450   17.181010      6.00      15.9994
      51     2 O    8    3.715040    1.861170    2.330860      6.00      15.9994
      52     2 O    8    3.692630    5.106190    5.701010      6.00      15.9994
      53     2 O    8    3.808880    1.883460    8.956640      6.00      15.9994
      54     2 O    8    3.734690    5.223560   12.571520      6.00      15.9994
      55     2 O    8    3.779360    1.729350   16.284320      6.00      15.9994
      56     2 O    8    3.771690    5.924350    2.022760      6.00      15.9994
      57     2 O    8    3.821840    2.574110    5.389830      6.00      15.9994
      58     2 O    8    3.761700    6.060200    9.045870      6.00      15.9994
      59     2 O    8    3.799330    2.643870   12.116660      6.00      15.9994
      60     2 O    8    3.769020    5.854720   15.745890      6.00      15.9994
      61     1 Sn  50    5.350830    7.160860    1.986080      4.00     118.7100
      62     1 Sn  50    5.337710    3.849080    5.537310      4.00     118.7100
      63     1 Sn  50    5.355750    7.368080    8.998730      4.00     118.7100
      64     1 Sn  50    5.396320    3.827510   12.464610      4.00     118.7100
      65     1 Sn  50    5.309970    7.182230   15.813250      4.00     118.7100
      66     1 Sn  50    6.986850    3.888960    2.174860      4.00     118.7100
      67     1 Sn  50    6.978910    7.297640    5.610010      4.00     118.7100
      68     1 Sn  50    6.981530    3.937830    8.984860      4.00     118.7100
      69     1 Sn  50    6.918030    7.268690   12.458500      4.00     118.7100
      70     1 Sn  50    6.868660    3.771910   15.954020      4.00     118.7100
      71     2 O    8    5.392980    3.971810    0.719250      6.00      15.9994
      72     2 O    8    5.376890    7.257770    4.253890      6.00      15.9994
      73     2 O    8    5.347150    3.664800    7.574810      6.00      15.9994
      74     2 O    8    5.351190    7.154270   11.115170      6.00      15.9994
      75     2 O    8    5.344100    3.618570   14.564300      6.00      15.9994
      76     2 O    8    5.315600    4.035170    3.462360      6.00      15.9994
      77     2 O    8    5.349470    7.297670    6.910010      6.00      15.9994
      78     2 O    8    5.474030    3.994210   10.317550      6.00      15.9994
      79     2 O    8    5.283690    7.428000   13.745960      6.00      15.9994
      80     2 O    8    5.294030    3.982720   17.216760      6.00      15.9994
      81     2 O    8    6.953050    1.857340    1.968920      6.00      15.9994
      82     2 O    8    6.869850    5.233590    5.717440      6.00      15.9994
      83     2 O    8    6.919020    1.858280    9.007420      6.00      15.9994
      84     2 O    8    6.914210    5.143930   12.576100      6.00      15.9994
      85     2 O    8    7.028490    1.738340   15.827500      6.00      15.9994
      86     2 O    8    6.983340    6.055860    2.010640      6.00      15.9994
      87     2 O    8    6.932140    2.615610    5.634160      6.00      15.9994
      88     2 O    8    6.902930    5.987040    8.933290      6.00      15.9994
      89     2 O    8    7.041330    2.600180   12.466000      6.00      15.9994
      90     2 O    8    6.983850    5.924920   15.672750      6.00      15.9994
      91     1 Sn  50    8.547410    7.369300    2.012510      4.00     118.7100
      92     1 Sn  50    8.488380    3.943050    5.613440      4.00     118.7100
      93     1 Sn  50    8.522850    7.138010    8.973840      4.00     118.7100
      94     1 Sn  50    8.573210    3.926780   12.379020      4.00     118.7100
      95     1 Sn  50    8.481610    7.192330   15.852000      4.00     118.7100
      96     1 Sn  50   10.121990    3.959300    2.061290      4.00     118.7100
      97     1 Sn  50   10.081010    7.350450    5.594000      4.00     118.7100
      98     1 Sn  50   10.144990    3.886070    8.971490      4.00     118.7100
      99     1 Sn  50   10.059450    7.185560   12.456470      4.00     118.7100
     100     1 Sn  50   10.165720    3.810860   15.655240      4.00     118.7100
     101     2 O    8    8.542600    4.053870    0.806160      6.00      15.9994
     102     2 O    8    8.636110    7.400630    4.246740      6.00      15.9994
     103     2 O    8    8.573070    3.886190    7.723340      6.00      15.9994
     104     2 O    8    8.498330    7.086290   11.104000      6.00      15.9994
     105     2 O    8    8.515410    3.766900   14.535650      6.00      15.9994
     106     2 O    8    8.462460    4.078500    3.512500      6.00      15.9994
     107     2 O    8    8.579270    7.230680    6.895400      6.00      15.9994
     108     2 O    8    8.543050    4.113160   10.312920      6.00      15.9994
     109     2 O    8    8.560300    7.427150   13.797560      6.00      15.9994
     110     2 O    8    8.689720    3.973220   17.290590      6.00      15.9994
     111     2 O    8   10.064940    1.979090    2.188810      6.00      15.9994
     112     2 O    8   10.143930    5.203910    5.694760      6.00      15.9994
     113     2 O    8   10.143300    1.840060    8.906990      6.00      15.9994
     114     2 O    8   10.161250    5.134000   12.479470      6.00      15.9994
     115     2 O    8   10.181790    1.777920   16.135630      6.00      15.9994
     116     2 O    8   10.132550    6.030560    2.090220      6.00      15.9994
     117     2 O    8   10.067700    2.606150    5.564680      6.00      15.9994
     118     2 O    8   10.234140    5.948320    8.788830      6.00      15.9994
     119     2 O    8   10.141600    2.563890   12.171510      6.00      15.9994
     120     2 O    8   10.006320    5.834440   15.623770      6.00      15.9994
     121     1 Sn  50   -0.995860   13.945840    2.112980      4.00     118.7100
     122     1 Sn  50   -1.014220   10.532960    5.661320      4.00     118.7100
     123     1 Sn  50   -1.005620   13.924090    8.928320      4.00     118.7100
     124     1 Sn  50   -1.030630   10.512310   12.362740      4.00     118.7100
     125     1 Sn  50   -0.993240   13.866490   15.959400      4.00     118.7100
     126     1 Sn  50    0.572710   10.576300    2.263560      4.00     118.7100
     127     1 Sn  50    0.582190   13.963730    5.488570      4.00     118.7100
     128     1 Sn  50    0.693170   10.565880    9.015530      4.00     118.7100
     129     1 Sn  50    0.568620   13.874080   12.520040      4.00     118.7100
     130     1 Sn  50    0.588880   10.426520   15.906730      4.00     118.7100
     131     2 O    8   -1.050980   10.401660    0.868130      6.00      15.9994
     132     2 O    8   -1.049300   14.059000    4.279690      6.00      15.9994
     133     2 O    8   -1.037000   10.519720    7.664240      6.00      15.9994
     134     2 O    8   -0.989510   13.891640   10.984780      6.00      15.9994
     135     2 O    8   -0.921030   10.345680   14.622920      6.00      15.9994
     136     2 O    8   -1.104590   10.636550    3.504680      6.00      15.9994
     137     2 O    8   -1.028000   13.909930    6.899790      6.00      15.9994
     138     2 O    8   -1.045110   10.511170   10.330590      6.00      15.9994
     139     2 O    8   -1.003870   14.024590   13.843730      6.00      15.9994
     140     2 O    8   -1.028940   10.694790   17.324020      6.00      15.9994
     141     2 O    8    0.540180    8.534000    2.199500      6.00      15.9994
     142     2 O    8    0.531510   11.803770    5.569040      6.00      15.9994
     143     2 O    8    0.555130    8.572760    9.090240      6.00      15.9994
     144     2 O    8    0.546300   11.855860   12.609370      6.00      15.9994
     145     2 O    8    0.549060    8.406030   16.149620      6.00      15.9994
     146     2 O    8    0.565140   12.664440    1.952010      6.00      15.9994
     147     2 O    8    0.637800    9.240130    5.512750      6.00      15.9994
     148     2 O    8    0.569690   12.582420    8.943030      6.00      15.9994
     149     2 O    8    0.556210    9.306300   12.595640      6.00      15.9994
     150     2 O    8    0.543190   12.539530   15.712580      6.00      15.9994
     151     1 Sn  50    2.123900   13.985880    1.973220      4.00     118.7100
     152     1 Sn  50    2.139700   10.530110    5.598120      4.00     118.7100
     153     1 Sn  50    2.185360   14.000210    8.850000      4.00     118.7100
     154     1 Sn  50    2.142770   10.611430   12.561590      4.00     118.7100
     155     1 Sn  50    2.197510   13.858430   15.821190      4.00     118.7100
     156     1 Sn  50    3.706460   10.592430    2.185580      4.00     118.7100
     157     1 Sn  50    3.707640   13.867380    5.368410      4.00     118.7100
     158     1 Sn  50    3.764830   10.721760    9.068730      4.00     118.7100
     159     1 Sn  50    3.752600   13.935570   12.248270      4.00     118.7100
     160     1 Sn  50    3.707830   10.534930   15.910020      4.00     118.7100
     161     2 O    8    2.143880   10.564020    0.898030      6.00      15.9994
     162     2 O    8    2.103300   13.720930    4.047360      6.00      15.9994
     163     2 O    8    2.072170   10.609710    7.619520      6.00      15.9994
     164     2 O    8    2.176790   13.930760   11.010700      6.00      15.9994
     165     2 O    8    2.142170   10.458240   14.587450      6.00      15.9994
     166     2 O    8    2.182110   10.542100    3.483980      6.00      15.9994
     167     2 O    8    2.094090   13.943280    6.739170      6.00      15.9994
     168     2 O    8    2.199890   10.747400   10.389300      6.00      15.9994
     169     2 O    8    2.283560   14.047670   13.707110      6.00      15.9994
     170     2 O    8    2.111510   10.707510   17.299560      6.00      15.9994
     171     2 O    8    3.786500    8.541310    2.158690      6.00      15.9994
     172     2 O    8    3.789400   11.816920    5.670660      6.00      15.9994
     173     2 O    8    3.700990    8.676990    9.025170      6.00      15.9994
     174     2 O    8    3.741740   11.882360   12.630540      6.00      15.9994
     175     2 O    8    3.695390    8.499730   16.146950      6.00      15.9994
     176     2 O    8    3.666660   12.620720    1.889660      6.00      15.9994
     177     2 O    8    3.740050    9.320550    5.461160      6.00      15.9994
     178     2 O    8    3.798420   12.809830    8.866050      6.00      15.9994
     179     2 O    8    3.801870    9.340810   12.433240      6.00      15.9994
     180     2 O    8    3.750650   12.625200   15.758330      6.00      15.9994
     181     1 Sn  50    5.349680   13.902220    1.975110      4.00     118.7100
     182     1 Sn  50    5.357910   10.551440    5.525730      4.00     118.7100
     183     1 Sn  50    5.370030   14.073710    8.848240      4.00     118.7100
     184     1 Sn  50    5.378950   10.629990   12.460650      4.00     118.7100
     185     1 Sn  50    5.362590   13.887980   15.889820      4.00     118.7100
     186     1 Sn  50    6.954580   10.694890    1.958090      4.00     118.7100
     187     1 Sn  50    6.889320   13.957530    5.474860      4.00     118.7100
     188     1 Sn  50    6.985750   10.626990    9.061670      4.00     118.7100
     189     1 Sn  50    6.946040   13.914870   12.448830      4.00     118.7100
     190     1 Sn  50    7.001800   10.506570   15.973060      4.00     118.7100
     191     2 O    8    5.255070   10.708480    0.713860      6.00      15.9994
     192     2 O    8    5.377490   13.819660    4.113620      6.00      15.9994
     193     2 O    8    5.251540   10.482800    7.719600      6.00      15.9994
     194     2 O    8    5.398790   13.988180   11.044340      6.00      15.9994
     195     2 O    8    5.335250   10.483550   14.662480      6.00      15.9994
     196     2 O    8    5.353970   10.842570    3.390290      6.00      15.9994
     197     2 O    8    5.201610   14.021220    6.792780      6.00      15.9994
     198     2 O    8    5.307640   10.677810   10.362840      6.00      15.9994
     199     2 O    8    5.314270   13.913640   13.714680      6.00      15.9994
     200     2 O    8    5.280140   10.524800   17.383030      6.00      15.9994
     201     2 O    8    6.884330    8.631940    2.119810      6.00      15.9994
     202     2 O    8    6.869710   11.871060    5.578600      6.00      15.9994
     203     2 O    8    7.005140    8.585090    9.127430      6.00      15.9994
     204     2 O    8    6.993590   11.906270   12.429370      6.00      15.9994
     205     2 O    8    6.819380    8.494010   15.865050      6.00      15.9994
     206     2 O    8    7.003700   12.722950    1.772040      6.00      15.9994
     207     2 O    8    7.030650    9.332500    5.628700      6.00      15.9994
     208     2 O    8    6.928520   12.699760    8.877450      6.00      15.9994
     209     2 O    8    6.945290    9.287630   12.190400      6.00      15.9994
     210     2 O    8    6.948250   12.615140   15.683910      6.00      15.9994
     211     1 Sn  50    8.574000   14.012850    2.089330      4.00     118.7100
     212     1 Sn  50    8.494220   10.758270    5.554290      4.00     118.7100
     213     1 Sn  50    8.549450   13.939900    9.069030      4.00     118.7100
     214     1 Sn  50    8.574640   10.596190   12.501330      4.00     118.7100
     215     1 Sn  50    8.577210   13.775820   15.822910      4.00     118.7100
     216     1 Sn  50   10.027740   10.724960    2.249250      4.00     118.7100
     217     1 Sn  50   10.114530   13.960070    5.614050      4.00     118.7100
     218     1 Sn  50   10.171510   10.553310    9.034700      4.00     118.7100
     219     1 Sn  50   10.162470   13.955550   12.417810      4.00     118.7100
     220     1 Sn  50   10.229310   10.491120   15.844410      4.00     118.7100
     221     2 O    8    8.596370   10.672700    0.714530      6.00      15.9994
     222     2 O    8    8.532620   14.010170    4.160210      6.00      15.9994
     223     2 O    8    8.549270   10.658660    7.658970      6.00      15.9994
     224     2 O    8    8.564680   13.729540   11.078170      6.00      15.9994
     225     2 O    8    8.595320   10.594810   14.566690      6.00      15.9994
     226     2 O    8    8.366670   10.861970    3.442660      6.00      15.9994
     227     2 O    8    8.517510   13.775810    6.864650      6.00      15.9994
     228     2 O    8    8.598490   10.692430   10.351790      6.00      15.9994
     229     2 O    8    8.594380   13.960360   13.692450      6.00      15.9994
     230     2 O    8    8.595770   10.689960   17.181550      6.00      15.9994
     231     2 O    8   10.115760    8.657430    2.284540      6.00      15.9994
     232     2 O    8   10.215080   11.893180    5.482310      6.00      15.9994
     233     2 O    8   10.086250    8.501240    9.078740      6.00      15.9994
     234     2 O    8   10.228170   11.916900   12.449740      6.00      15.9994
     235     2 O    8   10.148500    8.513280   16.223110      6.00      15.9994
     236     2 O    8   10.120040   12.748510    2.098970      6.00      15.9994
     237     2 O    8   10.085840    9.379370    5.489970      6.00      15.9994
     238     2 O    8   10.186660   12.618640    9.030690      6.00      15.9994
     239     2 O    8   10.154720    9.304810   12.372650      6.00      15.9994
     240     2 O    8   10.145780   12.601570   15.715980      6.00      15.9994
     241     2 O    8    9.749880    2.234990   33.293550      6.00      15.9994
     242     3 H    1    9.593650    1.703940   32.392570      1.00       1.0079
     243     3 H    1    9.143930    2.982210   33.190870      1.00       1.0079
     244     2 O    8    2.440130    5.007220   49.315810      6.00      15.9994
     245     3 H    1    1.755500    4.336060   48.867460      1.00       1.0079
     246     3 H    1    2.069020    5.919410   49.699220      1.00       1.0079
     247     2 O    8   10.754590    2.255360   43.049130      6.00      15.9994
     248     3 H    1   11.183570    1.508880   42.612530      1.00       1.0079
     249     3 H    1   10.219820    2.715040   42.387090      1.00       1.0079
     250     2 O    8    2.043080   13.523460   33.837600      6.00      15.9994
     251     3 H    1    1.307400   14.083210   34.102770      1.00       1.0079
     252     3 H    1    1.970840   12.596480   34.188590      1.00       1.0079
     253     2 O    8    6.531820    5.275200   44.716310      6.00      15.9994
     254     3 H    1    7.226170    4.443580   44.711540      1.00       1.0079
     255     3 H    1    5.648720    4.870190   44.897850      1.00       1.0079
     256     2 O    8    8.376710    0.471740   34.938370      6.00      15.9994
     257     3 H    1    8.975940    0.365420   35.705310      1.00       1.0079
     258     3 H    1    8.838060    1.103620   34.287200      1.00       1.0079
     259     2 O    8    3.516870    8.761910   33.273190      6.00      15.9994
     260     3 H    1    3.391010    9.626490   32.842970      1.00       1.0079
     261     3 H    1    2.826660    8.157070   32.891430      1.00       1.0079
     262     2 O    8    0.170390    3.387550   22.261040      6.00      15.9994
     263     3 H    1    0.807430    3.135660   21.556610      1.00       1.0079
     264     3 H    1    0.457060    2.695360   22.971470      1.00       1.0079
     265     2 O    8   16.774830    1.671400   29.217830      6.00      15.9994
     266     3 H    1   16.163460    1.531210   28.426490      1.00       1.0079
     267     3 H    1   17.358650    2.337280   29.004180      1.00       1.0079
     268     2 O    8    3.887390    4.068980   44.623360      6.00      15.9994
     269     3 H    1    3.813470    3.318780   45.270870      1.00       1.0079
     270     3 H    1    3.193180    4.694800   44.913730      1.00       1.0079
     271     2 O    8    7.445240    8.639710   31.213100      6.00      15.9994
     272     3 H    1    7.779340    7.748640   30.994570      1.00       1.0079
     273     3 H    1    7.356080    8.656530   32.228570      1.00       1.0079
     274     2 O    8    2.229890   -4.303580   24.537500      6.00      15.9994
     275     3 H    1    3.065950   -4.822050   24.818120      1.00       1.0079
     276     3 H    1    1.942580   -3.885050   25.350840      1.00       1.0079
     277     2 O    8    3.062460   11.805070   27.016480      6.00      15.9994
     278     3 H    1    2.062990   11.415920   26.727770      1.00       1.0079
     279     3 H    1    3.309570   11.288510   27.799700      1.00       1.0079
     280     2 O    8    0.573840    1.297650   45.393350      6.00      15.9994
     281     3 H    1    1.496710    1.215250   45.753190      1.00       1.0079
     282     3 H    1   -0.058750    1.408930   46.117900      1.00       1.0079
     283     2 O    8    3.109960    9.082870   37.868720      6.00      15.9994
     284     3 H    1    2.215480    8.656070   37.853870      1.00       1.0079
     285     3 H    1    3.638230    8.693430   38.647110      1.00       1.0079
     286     2 O    8    6.954130   11.882650   26.633460      6.00      15.9994
     287     3 H    1    6.661940   12.432600   27.346430      1.00       1.0079
     288     3 H    1    6.824940   10.847790   26.796340      1.00       1.0079
     289     2 O    8    5.053970   10.866650   36.021480      6.00      15.9994
     290     3 H    1    5.766450   10.985740   35.357950      1.00       1.0079
     291     3 H    1    4.433630   11.644540   35.935190      1.00       1.0079
     292     2 O    8    5.633940   -0.730650   28.901010      6.00      15.9994
     293     3 H    1    6.228360   -0.740780   29.696120      1.00       1.0079
     294     3 H    1    5.068790    0.018400   29.111300      1.00       1.0079
     295     2 O    8   10.190720    5.142270   25.706850      6.00      15.9994
     296     3 H    1   10.419450    5.473380   26.604870      1.00       1.0079
     297     3 H    1   10.993940    5.016460   25.181290      1.00       1.0079
     298     2 O    8   -0.742440    7.499250   21.416270      6.00      15.9994
     299     3 H    1   -0.480670    7.663000   22.318640      1.00       1.0079
     300     3 H    1   -0.688860    8.345610   20.971700      1.00       1.0079
     301     2 O    8    5.915020    7.052170   42.579560      6.00      15.9994
     302     3 H    1    6.234440    6.439110   43.336800      1.00       1.0079
     303     3 H    1    4.912480    6.958490   42.359620      1.00       1.0079
     304     2 O    8    8.401610   14.606650   40.664070      6.00      15.9994
     305     3 H    1    8.860120   13.730520   40.632530      1.00       1.0079
     306     3 H    1    8.066660   14.704310   41.561370      1.00       1.0079
     307     2 O    8    8.521200   -0.941610   38.027490      6.00      15.9994
     308     3 H    1    7.573370   -0.978600   38.264130      1.00       1.0079
     309     3 H    1    8.734240    0.050470   37.989000      1.00       1.0079
     310     2 O    8    1.488490    2.319230   20.249430      6.00      15.9994
     311     3 H    1    0.905430    2.431960   19.476860      1.00       1.0079
     312     3 H    1    2.209450    3.086220   20.018050      1.00       1.0079
     313     2 O    8   -4.063490   13.467940   22.209710      6.00      15.9994
     314     3 H    1   -3.261440   13.945390   22.208500      1.00       1.0079
     315     3 H    1   -3.907560   12.563730   21.738230      1.00       1.0079
     316     2 O    8   11.984080    3.869320   35.801520      6.00      15.9994
     317     3 H    1   12.477710    4.710380   36.010400      1.00       1.0079
     318     3 H    1   11.209220    4.226890   35.213340      1.00       1.0079
     319     2 O    8    6.329520    3.151530   29.528850      6.00      15.9994
     320     3 H    1    7.288040    3.437320   29.640450      1.00       1.0079
     321     3 H    1    6.068330    2.901830   30.446240      1.00       1.0079
     322     2 O    8    7.706480    6.049680   26.697480      6.00      15.9994
     323     3 H    1    8.379910    5.943720   27.351760      1.00       1.0079
     324     3 H    1    6.837170    5.772840   27.094920      1.00       1.0079
     325     2 O    8    2.175940   13.259720   17.891050      6.00      15.9994
     326     3 H    1    2.344960   12.230050   17.716220      1.00       1.0079
     327     3 H    1    1.316670   13.390260   18.300080      1.00       1.0079
     328     2 O    8   11.858560    5.263940   40.093390      6.00      15.9994
     329     3 H    1   12.049300    6.230850   40.203850      1.00       1.0079
     330     3 H    1   11.374810    4.975910   40.861840      1.00       1.0079
     331     2 O    8    9.287380   11.349690   47.459640      6.00      15.9994
     332     3 H    1    8.928810   10.487850   47.780800      1.00       1.0079
     333     3 H    1   10.337440    7.593590   50.397790      1.00       1.0079
     334     2 O    8   10.107010    6.765100   45.727760      6.00      15.9994
     335     3 H    1    9.183140    7.015970   45.906230      1.00       1.0079
     336     3 H    1   10.802530    7.380000   46.033020      1.00       1.0079
     337     2 O    8    6.643710   12.990530   31.297510      6.00      15.9994
     338     3 H    1    6.260990   13.798120   31.694790      1.00       1.0079
     339     3 H    1    6.906860   12.400870   32.084680      1.00       1.0079
     340     2 O    8    6.848490    9.460100   39.881410      6.00      15.9994
     341     3 H    1    7.064240    9.564300   40.801350      1.00       1.0079
     342     3 H    1    6.455030   10.339420   39.474780      1.00       1.0079
     343     2 O    8    5.308160    5.285280   34.092650      6.00      15.9994
     344     3 H    1    6.172270    4.855680   33.957630      1.00       1.0079
     345     3 H    1    5.110970    5.500890   33.154000      1.00       1.0079
     346     2 O    8   -0.270950    9.288080   43.902900      6.00      15.9994
     347     3 H    1   -0.736110    8.840250   43.164380      1.00       1.0079
     348     3 H    1   -0.778290   10.027930   44.330560      1.00       1.0079
     349     2 O    8    5.039740    9.505190   49.125870      6.00      15.9994
     350     3 H    1    4.814270    8.634170   49.596550      1.00       1.0079
     351     3 H    1    4.331650    9.954020   48.537900      1.00       1.0079
     352     2 O    8   14.169580    7.230700   40.569680      6.00      15.9994
     353     3 H    1   14.166330    8.136670   40.219630      1.00       1.0079
     354     3 H    1   14.772510    7.264530   41.313260      1.00       1.0079
     355     2 O    8    6.023990    7.845290   35.556150      6.00      15.9994
     356     3 H    1    6.306310    7.203380   36.304660      1.00       1.0079
     357     3 H    1    5.953980    7.012830   35.025200      1.00       1.0079
     358     2 O    8    2.393840    0.756960   50.481700      6.00      15.9994
     359     3 H    1    2.321680    4.287730   50.571130      1.00       1.0079
     360     3 H    1    1.969530    1.554470   50.165320      1.00       1.0079
     361     2 O    8    8.870260   10.152810   42.880680      6.00      15.9994
     362     3 H    1    7.913210   10.031280   43.090400      1.00       1.0079
     363     3 H    1    9.351440   10.457350   43.711750      1.00       1.0079
     364     2 O    8   16.900690   10.609800   41.776480      6.00      15.9994
     365     3 H    1   17.175390   10.137740   40.935560      1.00       1.0079
     366     3 H    1   17.704880   10.539070   42.398120      1.00       1.0079
     367     2 O    8    2.368980    5.824310   30.574220      6.00      15.9994
     368     3 H    1    1.843520    5.898600   29.778810      1.00       1.0079
     369     3 H    1    1.851650    6.315980   31.224810      1.00       1.0079
     370     2 O    8    7.958520   -1.481140   33.447040      6.00      15.9994
     371     3 H    1    8.784140   -1.524250   32.909100      1.00       1.0079
     372     3 H    1    8.337700   -0.769070   34.133860      1.00       1.0079
     373     2 O    8   -3.006310    6.858240   37.285630      6.00      15.9994
     374     3 H    1   -2.042810    6.633040   37.205580      1.00       1.0079
     375     3 H    1   -3.231450    6.976560   36.309630      1.00       1.0079
     376     2 O    8    4.925500    2.360090   38.207430      6.00      15.9994
     377     3 H    1    4.215790    2.483560   37.548560      1.00       1.0079
     378     3 H    1    5.786880    2.272660   37.718980      1.00       1.0079
     379     2 O    8    4.787770   16.828540   42.159160      6.00      15.9994
     380     3 H    1    4.289230   17.269620   42.855090      1.00       1.0079
     381     3 H    1    5.709810   16.756730   42.486210      1.00       1.0079
     382     2 O    8   11.327730    7.491740   50.518670      6.00      15.9994
     383     3 H    1   11.519440    6.561550   50.047730      1.00       1.0079
     384     3 H    1   10.145710   11.560970   47.984160      1.00       1.0079
     385     2 O    8    9.734440   11.967470   40.944250      6.00      15.9994
     386     3 H    1    9.487280   11.566830   40.080420      1.00       1.0079
     387     3 H    1    9.527060   11.269370   41.634910      1.00       1.0079
     388     2 O    8   12.965080    1.167160   39.545660      6.00      15.9994
     389     3 H    1   13.514510    2.032090   39.884190      1.00       1.0079
     390     3 H    1   12.227350    1.604190   39.065980      1.00       1.0079
     391     2 O    8    4.764070    5.237660   39.787370      6.00      15.9994
     392     3 H    1    4.859260    4.670630   40.635570      1.00       1.0079
     393     3 H    1    5.444720    4.862120   39.170400      1.00       1.0079
     394     2 O    8    7.957750    6.688390   40.316410      6.00      15.9994
     395     3 H    1    7.236590    6.771950   40.998390      1.00       1.0079
     396     3 H    1    8.403220    5.804730   40.566080      1.00       1.0079
     397     2 O    8    4.048140    7.344510   27.597870      6.00      15.9994
     398     3 H    1    4.433580    6.501220   27.565030      1.00       1.0079
     399     3 H    1    4.483180    7.896460   28.324270      1.00       1.0079
     400     2 O    8    8.979260    9.298360   19.298500      6.00      15.9994
[...]
 flops    13 x    13 x    32         213201487616       0.0%    100.0%      0.0%
 flops    13 x    32 x    32         215762227200       0.0%    100.0%      0.0%
 flops   192 x   112 x   306         216620974080       0.0%    100.0%      0.0%
 flops   160 x    96 x    64         222953472000       0.0%    100.0%      0.0%
 flops   945 x   128 x   286         270252702720       0.0%    100.0%      0.0%
 flops   946 x   128 x   286         270538684416       0.0%    100.0%      0.0%
 flops   949 x   128 x   286         271396629504       0.0%    100.0%      0.0%
 flops   950 x   128 x   286         271682611200       0.0%    100.0%      0.0%
 flops   953 x   128 x   286         272540556288       0.0%    100.0%      0.0%
 flops     9 x    32 x     5         274777660800       0.0%    100.0%      0.0%
 flops     5 x    32 x     9         274777660800       0.0%    100.0%      0.0%
 flops   945 x   112 x    64         290756874240       0.0%    100.0%      0.0%
 flops   951 x    96 x   306         290987375616       0.0%    100.0%      0.0%
 flops   946 x   112 x    64         291064553472       0.0%    100.0%      0.0%
 flops   949 x   112 x    64         291987591168       0.0%    100.0%      0.0%
 flops   950 x   112 x    64         292295270400       0.0%    100.0%      0.0%
 flops   953 x   112 x    64         293218308096       0.0%    100.0%      0.0%
 flops   945 x   128 x   311         293876190720       0.0%    100.0%      0.0%
 flops   946 x   128 x   311         294187170816       0.0%    100.0%      0.0%
 flops   949 x   128 x   311         295120111104       0.0%    100.0%      0.0%
 flops   950 x   128 x   311         295431091200       0.0%    100.0%      0.0%
 flops   953 x   128 x   311         296364031488       0.0%    100.0%      0.0%
 flops   951 x   128 x    48         322460393472       0.0%    100.0%      0.0%
 flops   160 x   128 x   286         347078983680       0.0%    100.0%      0.0%
 flops   192 x    96 x   306         371350241280       0.0%    100.0%      0.0%
 flops   160 x   128 x   311         377418055680       0.0%    100.0%      0.0%
 flops   192 x   112 x    64         390168576000       0.0%    100.0%      0.0%
 flops    13 x    16 x    13         404847195584       0.0%    100.0%      0.0%
 flops   176 x   128 x   306         408485265408       0.0%    100.0%      0.0%
 flops   951 x   128 x    32         429947191296       0.0%    100.0%      0.0%
 flops   945 x    96 x    64         498440355840       0.0%    100.0%      0.0%
 flops   946 x    96 x    64         498967805952       0.0%    100.0%      0.0%
 flops   949 x    96 x    64         500550156288       0.0%    100.0%      0.0%
 flops   950 x    96 x    64         501077606400       0.0%    100.0%      0.0%
 flops   953 x    96 x    64         502659956736       0.0%    100.0%      0.0%
 flops     9 x    32 x    13         544548925440       0.0%    100.0%      0.0%
 flops    13 x    32 x     9         544548925440       0.0%    100.0%      0.0%
 flops   945 x   128 x   306         578302986240       0.0%    100.0%      0.0%
 flops   946 x   128 x   306         578914947072       0.0%    100.0%      0.0%
 flops   949 x   128 x   306         580750829568       0.0%    100.0%      0.0%
 flops   950 x   128 x   306         581362790400       0.0%    100.0%      0.0%
 flops   953 x   128 x   306         583198672896       0.0%    100.0%      0.0%
 flops     5 x     5 x    64         651435052800       0.0%    100.0%      0.0%
 flops   192 x    96 x    64         668860416000       0.0%    100.0%      0.0%
 flops   176 x   128 x    64         735746457600       0.0%    100.0%      0.0%
 flops   160 x   128 x   306         742700482560       0.0%    100.0%      0.0%
 flops   951 x   128 x   286         815905778688       0.0%    100.0%      0.0%
 flops   951 x   112 x    64         877808848896       0.0%    100.0%      0.0%
 flops   951 x   128 x   311         887226213888       0.0%    100.0%      0.0%
 flops   192 x   128 x   286        1041236951040       0.0%    100.0%      0.0%
 flops   192 x   128 x   311        1132254167040       0.0%    100.0%      0.0%
 flops     5 x    13 x    64        1310714845440       0.0%    100.0%      0.0%
 flops    13 x     5 x    64        1311751983360       0.0%    100.0%      0.0%
 flops   160 x   128 x    64        1337720832000       0.0%    100.0%      0.0%
 flops   951 x    96 x    64        1504815169536       0.0%    100.0%      0.0%
 flops   951 x   128 x   306        1745924253696       0.0%    100.0%      0.0%
 flops   192 x   128 x   306        2228101447680       0.0%    100.0%      0.0%
 flops   945 x   128 x    64        2990642135040       0.0%    100.0%      0.0%
 flops   946 x   128 x    64        2993806835712       0.0%    100.0%      0.0%
 flops   949 x   128 x    64        3003300937728       0.0%    100.0%      0.0%
 flops   950 x   128 x    64        3006465638400       0.0%    100.0%      0.0%
 flops   953 x   128 x    64        3015959740416       0.0%    100.0%      0.0%
 flops   192 x   128 x    64        4013162496000       0.0%    100.0%      0.0%
 flops    13 x    13 x    64        4477231239936       0.0%    100.0%      0.0%
 flops     5 x    32 x     5        5434440480000       0.0%    100.0%      0.0%
 flops   951 x   128 x    64        9028891017216       0.0%    100.0%      0.0%
 flops    13 x    32 x     5       10603378656000       0.0%    100.0%      0.0%
 flops     5 x    32 x    13       10603378656000       0.0%    100.0%      0.0%
 flops    13 x    32 x    13       36436247602560       0.0%    100.0%      0.0%
 flops inhomo. stacks              47076248739840     100.0%      0.0%      0.0%
 flops total                       182.768334E+12      25.8%     74.2%      0.0%
 flops max/rank                      2.037318E+12      26.0%     74.0%      0.0%
 matmuls inhomo. stacks                   1762833     100.0%      0.0%      0.0%
 matmuls total                        13349580952       0.0%    100.0%      0.0%
 number of processed stacks              34911273       4.6%     95.4%      0.0%
 average stack size                                     1.1     400.8       0.0
 marketing flops                   291.383533E+12
 -------------------------------------------------------------------------------
 # multiplications                           4555
 max memory usage/rank             459.956224E+06
 # max total images/rank                        3
 # max 3D layers                                1
 # MPI messages exchanged                18803040
 MPI messages size (bytes):
  total size                         6.986766E+12
  min size                           0.000000E+00
  max size                           2.698896E+06
  average size                     371.576375E+03
 MPI breakdown and total messages size (bytes):
             size <=      128               53784                        0
       128 < size <=     8192                 126                  1032192
      8192 < size <=    32768              401394              12447102976
     32768 < size <=   131072             7251288             522087401472
    131072 < size <=  4194304            11096448            6452005342464
   4194304 < size <= 16777216                   0                        0
  16777216 < size                               0                        0
 -------------------------------------------------------------------------------

 *** WARNING in dbcsr_mm.F:295 :: Using a non-square number of MPI ranks ***
 *** might lead to poor performance. Used ranks: 96 Suggested: 100 196   ***

 -------------------------------------------------------------------------------
 -                                                                             -
 -                      DBCSR MESSAGE PASSING PERFORMANCE                      -
 -                                                                             -
 -------------------------------------------------------------------------------
 ROUTINE             CALLS      AVE VOLUME [Bytes]
 MP_Group              999
 MP_Bcast              232                     12.
 MP_Allreduce        23994                     17.
 MP_Alltoall         28849                 281787.
 MP_Wait            437280
 MP_ISend           427072                 182304.
 MP_IRecv           424964                 181547.
 MP_Memory          374580
 -------------------------------------------------------------------------------

 MEMORY| Estimated peak process memory [MiB]                                 442

 -------------------------------------------------------------------------------
 ----                             MULTIGRID INFO                            ----
 -------------------------------------------------------------------------------
 count for grid        1:        2185714          cutoff [a.u.]          400.00
 count for grid        2:        2006083          cutoff [a.u.]          133.33
 count for grid        3:        2067655          cutoff [a.u.]           44.44
 count for grid        4:        1601179          cutoff [a.u.]           14.81
 count for grid        5:         894474          cutoff [a.u.]            4.94
 total gridlevel count  :        8755105

 -------------------------------------------------------------------------------
 -                                                                             -
 -                         MESSAGE PASSING PERFORMANCE                         -
 -                                                                             -
 -------------------------------------------------------------------------------

 ROUTINE             CALLS      AVE VOLUME [Bytes]
 MP_Group                5
 MP_Bcast             8826                 121680.
 MP_Allreduce        22615                   6490.
 MP_Sync                 6
 MP_Alltoall          5666               12549865.
 MP_SendRecv        139650                 613305.
 MP_ISendRecv       119130                  68352.
 MP_Wait            208170
 MP_ISend            85680                 212713.
 MP_IRecv            85680                 212713.
 MP_Recv               495                1944576.
 MP_Write_All            2                2900880.
 -------------------------------------------------------------------------------


 -------------------------------------------------------------------------------
 -                                                                             -
 -                           R E F E R E N C E S                               -
 -                                                                             -
 -------------------------------------------------------------------------------
 
 CP2K version 7.1, the CP2K developers group (2019).
 CP2K is freely available from https://www.cp2k.org/ .

 Schuett, Ole; Messmer, Peter; Hutter, Juerg; VandeVondele, Joost. 
 Electronic Structure Calculations on Graphics Processing Units, John
 Wiley & Sons, Ltd, 173-190 (2016). 
 GPU-Accelerated Sparse Matrix-Matrix Multiplication for
 Linear Scaling Density Functional Theory.
 https://dx.doi.org/10.1002/9781118670712.ch8

 Borstnik, U; VandeVondele, J; Weber, V; Hutter, J. 
 PARALLEL COMPUTING, 40 (5-6), 47-58 (2014). 
 Sparse matrix multiplication: The distributed block-compressed sparse
 row library.
 https://dx.doi.org/10.1016/j.parco.2014.03.012

 Hutter, J; Iannuzzi, M; Schiffmann, F; VandeVondele, J. 
 WIREs Comput Mol Sci., 4 (1), 15-25 (2014). 
 CP2K: atomistic simulations of condensed matter systems.
 https://dx.doi.org/10.1002/wcms.1159

 Marek, A; Blum, V; Johanni, R; Havu, V; Lang, B; Auckenthaler, T;
 Heinecke, A; Bungartz, H; Lederer, H. 
 Journal of Physics: Condensed Matter, 26 (21), (2014). 
 The ELPA library: scalable parallel eigenvalue solutions for
 electronic structure
 theory and computational science.
 https://dx.doi.org/10.1088/0953-8984/26/21/213201

 Grimme, S; Ehrlich, S; Goerigk, L. 
 JOURNAL OF COMPUTATIONAL CHEMISTRY, 32, 1456 (2011). 
 Effect of the damping function in dispersion corrected density functional theory.
 https://dx.doi.org/10.1002/jcc.21759

 Grimme, S; Antony, J; Ehrlich, S; Krieg, H. 
 JOURNAL OF CHEMICAL PHYSICS, 132 (15), 154104 (2010). 
 A consistent and accurate ab initio parametrization of density
 functional dispersion correction (DFT-D) for the 94 elements H-Pu.
 https://dx.doi.org/10.1063/1.3382344

 VandeVondele, J; Hutter, J. 
 JOURNAL OF CHEMICAL PHYSICS, 127 (11), 114105 (2007). 
 Gaussian basis sets for accurate calculations on molecular systems in
 gas and condensed phases.
 https://dx.doi.org/10.1063/1.2770708

 Krack, M. 
 THEORETICAL CHEMISTRY ACCOUNTS, 114 (1-3), 145-152 (2005). 
 Pseudopotentials for H to Kr optimized for gradient-corrected
 exchange-correlation functionals.
 https://dx.doi.org/10.1007/s00214-005-0655-y

 VandeVondele, J; Krack, M; Mohamed, F; Parrinello, M; Chassaing, T;
 Hutter, J. COMPUTER PHYSICS COMMUNICATIONS, 167 (2), 103-128 (2005). 
 QUICKSTEP: Fast and accurate density functional calculations using a
 mixed Gaussian and plane waves approach.
 https://dx.doi.org/10.1016/j.cpc.2004.12.014

 Frigo, M; Johnson, SG. 
 PROCEEDINGS OF THE IEEE, 93 (2), 216-231 (2005). 
 The design and implementation of FFTW3.
 https://dx.doi.org/10.1109/JPROC.2004.840301

 VandeVondele, J; Hutter, J. 
 JOURNAL OF CHEMICAL PHYSICS, 118 (10), 4365-4369 (2003). 
 An efficient orbital transformation method for electronic structure
 calculations.
 https://dx.doi.org/10.1063/1.1543154

 Umari, P; Pasquarello, A. 
 PHYSICAL REVIEW LETTERS, 89 (15), 157602 (2002). 
 Ab initio molecular dynamics in a finite homogeneous electric field.
 https://dx.doi.org/10.1103/PhysRevLett.89.157602

 Souza, I; Iniguez, J; Vanderbilt, D. 
 PHYSICAL REVIEW LETTERS, 89 (11), 117602 (2002). 
 First-principles approach to insulators in finite electric fields.
 https://dx.doi.org/10.1103/PhysRevLett.89.117602

 Hartwigsen, C; Goedecker, S; Hutter, J. 
 PHYSICAL REVIEW B, 58 (7), 3641-3662 (1998). 
 Relativistic separable dual-space Gaussian pseudopotentials from H to Rn.
 https://dx.doi.org/10.1103/PhysRevB.58.3641

 Lippert, G; Hutter, J; Parrinello, M. 
 MOLECULAR PHYSICS, 92 (3), 477-487 (1997). 
 A hybrid Gaussian and plane wave density functional scheme.
 https://dx.doi.org/10.1080/002689797170220

 Perdew, JP; Burke, K; Ernzerhof, M. 
 PHYSICAL REVIEW LETTERS, 77 (18), 3865-3868 (1996). 
 Generalized gradient approximation made simple.
 https://dx.doi.org/10.1103/PhysRevLett.77.3865

 Goedecker, S; Teter, M; Hutter, J. 
 PHYSICAL REVIEW B, 54 (3), 1703-1710 (1996). 
 Separable dual-space Gaussian pseudopotentials.
 https://dx.doi.org/10.1103/PhysRevB.54.1703


 -------------------------------------------------------------------------------
 -                                                                             -
 -                                T I M I N G                                  -
 -                                                                             -
 -------------------------------------------------------------------------------
 SUBROUTINE                       CALLS  ASD         SELF TIME        TOTAL TIME
                                MAXIMUM       AVERAGE  MAXIMUM  AVERAGE  MAXIMUM
 CP2K                                 1  1.0    0.037    0.061 1507.804 1507.829
 qs_forces                            1  2.0    0.001    0.001 1507.166 1507.190
 qs_energies                          1  3.0    0.000    0.000 1502.593 1502.617
 scf_post_calculation_gpw             1  4.0    0.000    0.000  771.431  771.443
 get_localization_info                1  5.0    0.000    0.000  767.678  767.702
 qs_loc_driver                        1  6.0    0.000    0.000  767.678  767.702
 optimize_loc_berry                   1  7.0    0.054    0.058  767.661  767.674
 jacobi_rot_para                      1  8.0  497.229  556.100  767.059  767.071
 scf_env_do_scf                       1  4.0    0.000    0.002  728.115  728.127
 scf_env_do_scf_inner_loop          208  5.0    0.007    0.030  697.808  697.946
 rebuild_ks_matrix                  209  7.0    0.001    0.001  439.189  439.276
 qs_ks_build_kohn_sham_matrix       209  8.0    0.025    0.031  439.188  439.276
 qs_ks_update_qs_env                217  6.0    0.001    0.002  436.558  436.642
 pw_transfer                       4391 10.6    0.235    0.293  194.486  200.048
 fft_wrap_pw1pw2                   3973 11.7    0.036    0.048  192.694  198.343
 fft_wrap_pw1pw2_400               2301 12.8   10.774   14.423  184.598  189.589
 qs_rho_update_rho                  209  6.0    0.001    0.001  178.583  178.789
 calculate_rho_elec                 209  7.0  103.390  109.249  178.582  178.788
 qs_vxc_create                      209  9.0    0.003    0.004  174.604  175.989
 xc_vxc_pw_create                   209 10.0    1.490    1.817  174.601  175.986
 fft3d_ps                          3973 13.7   66.350   84.032  157.965  166.514
 sum_up_and_integrate               209  9.0    0.391    0.566  163.545  163.578
 integrate_v_rspace                 209 10.0  100.799  103.517  163.155  163.247
 mp_allgather_d23                 69635  9.0  128.844  159.883  128.844  159.883
 mp_sendrecv_zm3                  69635  9.0  130.082  143.277  130.082  143.277
 dbcsr_multiply_generic            4555 11.2    0.304    0.330  131.729  136.961
 multiply_cannon                   4555 12.2    1.002    1.183  101.609  109.059
 qs_scf_new_mos                     208  6.0    0.001    0.001  101.915  102.330
 qs_scf_loop_do_ot                  208  7.0    0.001    0.002  101.914  102.329
 xc_rho_set_and_dset_create         209 11.0    0.512    0.587   90.921  102.175
 mp_alltoall_z22v                  3973 15.7   76.982   95.667   76.982   95.667
 ot_scf_mini                        208  8.0    0.005    0.006   94.036   94.518
 rs_pw_transfer                    2094 10.5    0.024    0.032   68.570   73.461
 density_rs2pw                      209  8.0    0.012    0.015   66.496   71.681
 multiply_cannon_multrec         109320 13.2   59.845   68.341   59.877   68.371
 qs_efield_berry_phase              209  9.0    0.001    0.002   65.580   66.736
 qs_efield_derivatives              209 10.0    0.520    0.581   65.466   66.622
 yz_to_x                           1255 14.5    4.721    5.992   48.736   60.891
 ot_mini                            208  9.0    0.001    0.001   58.126   58.209
 mp_waitall_1                    559770 14.1   42.527   57.741   42.527   57.741
 potential_pw2rs                    209 11.0    0.037    0.045   57.373   57.493
 xc_functional_eval                 209 12.0    0.001    0.002   36.217   47.897
 pbe_lda_eval                       209 13.0   36.216   47.896   36.216   47.896
 x_to_yz                           1464 15.0    8.338   12.709   41.077   45.717
 multiply_cannon_metrocomm3      109320 13.2    0.185    0.211   13.959   42.419
 qs_ot_get_derivative               208 10.0    0.002    0.003   35.413   35.873
 cp_dbcsr_sm_fm_multiply            442 10.8    0.015    0.020   33.743   33.860
 mp_waitany                       85680 12.5   21.150   30.619   21.150   30.619
 init_scf_loop                        9  5.0    0.000    0.000   30.255   30.290
 -------------------------------------------------------------------------------

 The number of warnings for this run is : 2
 
 -------------------------------------------------------------------------------
  **** **** ******  **  PROGRAM ENDED AT                 2023-09-19 04:50:50.418
 ***** ** ***  *** **   PROGRAM RAN ON                                   c53-027
 **    ****   ******    PROGRAM RAN BY                                     jxzhu
 ***** **    ** ** **   PROGRAM PROCESS ID                                193774
  **** **  *******  **  PROGRAM STOPPED IN /data/jxzhu/nnp/dp_workdir/906a34e792
                                           1e9fa80075d10abe61272f27dd6207/calc/t
                                           ask.000.000000
